
                                 *****************
                                 * O   R   C   A *
                                 *****************

           --- An Ab Initio, DFT and Semiempirical electronic structure package ---

                  #######################################################
                  #                        -***-                        #
                  #          Department of theory and spectroscopy      #
                  #               Directorship: Frank Neese             #
                  #        Max Planck Institute fuer Kohlenforschung    #
                  #                Kaiser Wilhelm Platz 1               #
                  #                 D-45470 Muelheim/Ruhr               #
                  #                      Germany                        #
                  #                                                     #
                  #                  All rights reserved                #
                  #                        -***-                        #
                  #######################################################


                         Program Version 4.2.1 -  RELEASE  -


 With contributions from (in alphabetic order):
   Daniel Aravena         : Magnetic Suceptibility
   Michael Atanasov       : Ab Initio Ligand Field Theory (pilot matlab implementation)
   Alexander A. Auer      : GIAO ZORA, VPT2
   Ute Becker             : Parallelization
   Giovanni Bistoni       : ED, misc. LED, open-shell LED, HFLD
   Martin Brehm           : Molecular dynamics
   Dmytro Bykov           : SCF Hessian
   Vijay G. Chilkuri      : MRCI spin determinant printing, contributions to CSF-ICE
   Dipayan Datta          : RHF DLPNO-CCSD density
   Achintya Kumar Dutta   : EOM-CC, STEOM-CC
   Dmitry Ganyushin       : Spin-Orbit,Spin-Spin,Magnetic field MRCI
   Miquel Garcia          : C-PCM Hessian, Gaussian charge scheme
   Yang Guo               : DLPNO-NEVPT2, CIM, IAO-localization
   Andreas Hansen         : Spin unrestricted coupled pair/coupled cluster methods
   Benjamin Helmich-Paris : CASSCF linear response (MC-RPA)
   Lee Huntington         : MR-EOM, pCC
   Robert Izsak           : Overlap fitted RIJCOSX, COSX-SCS-MP3, EOM
   Christian Kollmar      : KDIIS, OOCD, Brueckner-CCSD(T), CCSD density
   Simone Kossmann        : Meta GGA functionals, TD-DFT gradient, OOMP2, MP2 Hessian
   Martin Krupicka        : AUTO-CI
   Lucas Lang             : DCDCAS
   Dagmar Lenk            : GEPOL surface, SMD
   Dimitrios Liakos       : Extrapolation schemes; Compound Job, initial MDCI parallelization
   Dimitrios Manganas     : Further ROCIS development; embedding schemes
   Dimitrios Pantazis     : SARC Basis sets
   Taras Petrenko         : DFT Hessian,TD-DFT gradient, ASA, ECA, R-Raman, ABS, FL, XAS/XES, NRVS
   Peter Pinski           : DLPNO-MP2, DLPNO-MP2 Gradient
   Christoph Reimann      : Effective Core Potentials
   Marius Retegan         : Local ZFS, SOC
   Christoph Riplinger    : Optimizer, TS searches, QM/MM, DLPNO-CCSD(T), (RO)-DLPNO pert. Triples
   Tobias Risthaus        : Range-separated hybrids, TD-DFT gradient, RPA, STAB
   Michael Roemelt        : Original ROCIS implementation
   Masaaki Saitow         : Open-shell DLPNO-CCSD energy and density
   Barbara Sandhoefer     : DKH picture change effects
   Avijit Sen             : IP-ROCIS
   Kantharuban Sivalingam : CASSCF convergence, NEVPT2, FIC-MRCI
   Bernardo de Souza      : ESD, SOC TD-DFT
   Georgi Stoychev        : AutoAux, RI-MP2 NMR
   Willem Van den Heuvel  : Paramagnetic NMR
   Boris Wezisla          : Elementary symmetry handling
   Frank Wennmohs         : Technical directorship


 We gratefully acknowledge several colleagues who have allowed us to
 interface, adapt or use parts of their codes:
   Stefan Grimme, W. Hujo, H. Kruse,             : VdW corrections, initial TS optimization,
                  C. Bannwarth                     DFT functionals, gCP, sTDA/sTD-DF
   Ed Valeev, F. Pavosevic, A. Kumar             : LibInt (2-el integral package), F12 methods
   Garnet Chan, S. Sharma, J. Yang, R. Olivares  : DMRG
   Ulf Ekstrom                                   : XCFun DFT Library
   Mihaly Kallay                                 : mrcc  (arbitrary order and MRCC methods)
   Andreas Klamt, Michael Diedenhofen            : otool_cosmo (COSMO solvation model)
   Jiri Pittner, Ondrej Demel                    : Mk-CCSD
   Frank Weinhold                                : gennbo (NPA and NBO analysis)
   Christopher J. Cramer and Donald G. Truhlar   : smd solvation model
   Lars Goerigk                                  : TD-DFT with DH, B97 family of functionals
   V. Asgeirsson, H. Jonsson                     : NEB implementation
   FAccTs GmbH                                   : IRC, NEB, NEB-TS, Multilevel, MM, QM/MM, CI optimization
   S Lehtola, MJT Oliveira, MAL Marques          : LibXC Library


 Your calculation uses the libint2 library for the computation of 2-el integrals
 For citations please refer to: http://libint.valeyev.net

 Your ORCA version has been built with support for libXC version: 4.2.3
 For citations please refer to: https://tddft.org/programs/libxc/

 This ORCA versions uses:
   CBLAS   interface :  Fast vector & matrix operations
   LAPACKE interface :  Fast linear algebra routines
   SCALAPACK package :  Parallel linear algebra routines




***************************************
The coordinates will be read from file: p1r2.xyz
***************************************


----- Orbital basis set information -----
Your calculation utilizes the basis: def2-TZVP
   F. Weigend and R. Ahlrichs, Phys. Chem. Chem. Phys. 7, 3297 (2005).

----- AuxJ basis set information -----
Your calculation utilizes the auxiliary basis: def2/J
   F. Weigend, Phys. Chem. Chem. Phys. 8, 1057 (2006).

================================================================================
                                        WARNINGS
                       Please study these warnings very carefully!
================================================================================

INFO   : Checking CIS options ...

INFO   : Since TDDFT/CIS Mode == RPA_AOINTS, the TAMMDANCOFF/TDA keyword is ignored. 


WARNING: CIS/ROCIS methods need fully converged wavefunctions
  ===> : Setting SCFConvForced true
         You can overwrite this default with %scf ConvForced false 


INFO   : the flag for use of LIBINT has been found!

================================================================================
                                       INPUT FILE
================================================================================
NAME = p1r2.inp
|  1> #
|  2> # P1R2 PBE0 with tight SCF convergence criteria
|  3> #
|  4> ! PBE0 def2-TZVP def2/J TightSCF NMGrad Normalprint Printbasis PrintMOs
|  5> #
|  6> %maxcore 3072
|  7> #
|  8> %pal
|  9>   nprocs 28
| 10> end
| 11> #
| 12> %tddft
| 13>   nroots 10   
| 14>   maxdim 10
| 15>   tda false
| 16> end
| 17> #
| 18> %rr 
| 19>   states 1,2,3,4,5,6,7,8,9,10
| 20>   HessName "p1r2.hess"
| 21>   ASAInput true
| 22> end
| 23> #
| 24> * xyzfile 0 1 p1r2.xyz
| 25> 
| 26>                          ****END OF INPUT****
================================================================================

                     *******************************
                     * Energy+Gradient Calculation *
                     *******************************

Will try to read the hessian file
 ...good, the file p1r2.hess exists

Cartesian cordinates from the hessian file will be used
Atomic masses from the hessian file will be used

There are 11 states to be processed:
 0, 1, 2, 3, 4, 5, 6, 7, 8, 9, 10

         *************************************************************
         *                 Single Point Calculation                  *
         *************************************************************
---------------------------------
CARTESIAN COORDINATES (ANGSTROEM)
---------------------------------
  C     -3.452501    1.246245    0.972368
  C     -2.080283    1.087404    0.886364
  C     -1.529078    0.183974   -0.027610
  C     -2.385637   -0.553139   -0.851308
  C     -3.756772   -0.387553   -0.760878
  C     -4.294904    0.510924    0.150057
  H     -3.867468    1.949255    1.685616
  H     -1.419281    1.660057    1.525816
  H     -1.961064   -1.253971   -1.559964
  H     -4.410108   -0.964569   -1.405336
  H     -5.369153    0.637824    0.219038
  C     -0.118074    0.016427   -0.119429
  C      1.075574   -0.135273   -0.201686
  C      2.531714   -0.289568   -0.312877
  C      2.941169   -1.722634   -0.002559
  H      2.673134   -1.986388    1.021004
  H      2.445077   -2.409760   -0.688051
  H      4.021589   -1.819811   -0.127026
  C      3.227824    0.693286    0.626979
  H      4.309017    0.584116    0.522377
  H      2.951964    1.720722    0.379029
  H      2.947218    0.507395    1.665410
  O      2.946182   -0.057583   -1.656819
  H      2.573861    0.782619   -1.940514

----------------------------
CARTESIAN COORDINATES (A.U.)
----------------------------
  NO LB      ZA    FRAG     MASS         X           Y           Z
   0 C     6.0000    0    12.011   -6.524281    2.355062    1.837510
   1 C     6.0000    0    12.011   -3.931165    2.054895    1.674985
   2 C     6.0000    0    12.011   -2.889538    0.347660   -0.052175
   3 C     6.0000    0    12.011   -4.508201   -1.045282   -1.608740
   4 C     6.0000    0    12.011   -7.099271   -0.732369   -1.437852
   5 C     6.0000    0    12.011   -8.116192    0.965507    0.283567
   6 H     1.0000    0     1.008   -7.308455    3.683558    3.185353
   7 H     1.0000    0     1.008   -2.682053    3.137054    2.883375
   8 H     1.0000    0     1.008   -3.705873   -2.369661   -2.947904
   9 H     1.0000    0     1.008   -8.333896   -1.822772   -2.655700
  10 H     1.0000    0     1.008  -10.146229    1.205314    0.413921
  11 C     6.0000    0    12.011   -0.223127    0.031043   -0.225687
  12 C     6.0000    0    12.011    2.032541   -0.255630   -0.381132
  13 C     6.0000    0    12.011    4.784245   -0.547204   -0.591252
  14 C     6.0000    0    12.011    5.558005   -3.255307   -0.004837
  15 H     1.0000    0     1.008    5.051490   -3.753730    1.929419
  16 H     1.0000    0     1.008    4.620526   -4.553787   -1.300228
  17 H     1.0000    0     1.008    7.599702   -3.438944   -0.240045
  18 C     6.0000    0    12.011    6.099702    1.310122    1.184818
  19 H     1.0000    0     1.008    8.142863    1.103819    0.987149
  20 H     1.0000    0     1.008    5.578403    3.251694    0.716262
  21 H     1.0000    0     1.008    5.569435    0.958837    3.147168
  22 O     8.0000    0    15.999    5.567476   -0.108816   -3.130934
  23 H     1.0000    0     1.008    4.863893    1.478936   -3.667041

--------------------------------
INTERNAL COORDINATES (ANGSTROEM)
--------------------------------
 C      0   0   0     0.000000000000     0.00000000     0.00000000
 C      1   0   0     1.384055554900     0.00000000     0.00000000
 C      2   1   0     1.398342180163   120.36955526     0.00000000
 C      3   2   1     1.398394937609   118.95362025     0.04774127
 C      4   3   2     1.384055151799   120.34886846     0.04187565
 C      1   2   3     1.387996982631   120.27263602   359.90778035
 H      1   2   3     1.084039867202   119.65880527   179.94897342
 H      2   1   3     1.083399777792   120.50154085   180.03979044
 H      4   3   2     1.083337136219   119.09447055   180.02235841
 H      5   4   3     1.084029757761   119.63945032   179.97060125
 H      6   1   2     1.083915691447   120.11787295   180.04327653
 C      3   2   1     1.423880280728   120.58331824   180.03326304
 C     12   3   2     1.206057457452   179.48366120   158.17342989
 C     13  12   3     1.468506762184   178.73300173   135.62838754
 C     14  13  12     1.522376700563   110.49736297   185.59406291
 H     15  14  13     1.090455034171   110.66532619   298.11202309
 H     15  14  13     1.090022145343   110.04749613    58.67465611
 H     15  14  13     1.091898599902   109.06688296   177.97630794
 C     14  13  12     1.527710776276   109.73318936    62.92769035
 H     19  14  13     1.091714298123   109.14648359   181.09747853
 H     19  14  13     1.092337960236   110.51232324   300.72064813
 H     19  14  13     1.091619723866   111.01087143    60.69492434
 O     14  13  12     1.425405506209   110.03613167   301.69482028
 H     23  14  13     0.961792381054   107.92199274    51.31361143

---------------------------
INTERNAL COORDINATES (A.U.)
---------------------------
 C      0   0   0     0.000000000000     0.00000000     0.00000000
 C      1   0   0     2.615485952893     0.00000000     0.00000000
 C      2   1   0     2.642483762019   120.36955526     0.00000000
 C      3   2   1     2.642583459142   118.95362025     0.04774127
 C      4   3   2     2.615485191143   120.34886846     0.04187565
 C      1   2   3     2.622934171882   120.27263602   359.90778035
 H      1   2   3     2.048538467264   119.65880527   179.94897342
 H      2   1   3     2.047328873578   120.50154085   180.03979044
 H      4   3   2     2.047210498161   119.09447055   180.02235841
 H      5   4   3     2.048519363189   119.63945032   179.97060125
 H      6   1   2     2.048303809094   120.11787295   180.04327653
 C      3   2   1     2.690743778067   120.58331824   180.03326304
 C     12   3   2     2.279118296358   179.48366120   158.17342989
 C     13  12   3     2.775075606338   178.73300173   135.62838754
 C     14  13  12     2.876875036727   110.49736297   185.59406291
 H     15  14  13     2.060661375938   110.66532619   298.11202309
 H     15  14  13     2.059843334608   110.04749613    58.67465611
 H     15  14  13     2.063389319828   109.06688296   177.97630794
 C     14  13  12     2.886954979002   109.73318936    62.92769035
 H     19  14  13     2.063041039938   109.14648359   181.09747853
 H     19  14  13     2.064219590531   110.51232324   300.72064813
 H     19  14  13     2.062862320493   111.01087143    60.69492434
 O     14  13  12     2.693626036519   110.03613167   301.69482028
 H     23  14  13     1.817524197885   107.92199274    51.31361143

---------------------
BASIS SET INFORMATION
---------------------
There are 3 groups of distinct atoms

 Group   1 Type C   : 11s6p2d1f contracted to 5s3p2d1f pattern {62111/411/11/1}
 Group   2 Type H   : 5s1p contracted to 3s1p pattern {311/1}
 Group   3 Type O   : 11s6p2d1f contracted to 5s3p2d1f pattern {62111/411/11/1}

Atom   0C    basis set group =>   1
Atom   1C    basis set group =>   1
Atom   2C    basis set group =>   1
Atom   3C    basis set group =>   1
Atom   4C    basis set group =>   1
Atom   5C    basis set group =>   1
Atom   6H    basis set group =>   2
Atom   7H    basis set group =>   2
Atom   8H    basis set group =>   2
Atom   9H    basis set group =>   2
Atom  10H    basis set group =>   2
Atom  11C    basis set group =>   1
Atom  12C    basis set group =>   1
Atom  13C    basis set group =>   1
Atom  14C    basis set group =>   1
Atom  15H    basis set group =>   2
Atom  16H    basis set group =>   2
Atom  17H    basis set group =>   2
Atom  18C    basis set group =>   1
Atom  19H    basis set group =>   2
Atom  20H    basis set group =>   2
Atom  21H    basis set group =>   2
Atom  22O    basis set group =>   3
Atom  23H    basis set group =>   2

-------------------------
BASIS SET IN INPUT FORMAT
-------------------------

 # Basis set for element : H 
 NewGTO H 
 S 3 
   1      34.0613410000      0.0254393072
   2       5.1235746000      0.1900859489
   3       1.1646626000      0.8524411301
 S 1 
   1       0.3272304100      1.0000000000
 S 1 
   1       0.1030724100      1.0000000000
 P 1 
   1       0.8000000000      1.0000000000
  end;

 # Basis set for element : C 
 NewGTO C 
 S 6 
   1   13575.3496820000      0.0006064549
   2    2035.2333680000      0.0046979088
   3     463.2256235900      0.0243324776
   4     131.2001959800      0.0973999683
   5      42.8530158910      0.3019558425
   6      15.5841857660      0.6623360915
 S 2 
   1       6.2067138508      0.6559530854
   2       2.5764896527      0.3758563329
 S 1 
   1       0.5769633942      1.0000000000
 S 1 
   1       0.2297283136      1.0000000000
 S 1 
   1       0.0951644400      1.0000000000
 P 4 
   1      34.6972322440      0.0113272200
   2       7.9582622826      0.0761696592
   3       2.3780826883      0.3019225220
   4       0.8143320818      0.7278502735
 P 1 
   1       0.2888754725      1.0000000000
 P 1 
   1       0.1005682367      1.0000000000
 D 1 
   1       1.0970000000      1.0000000000
 D 1 
   1       0.3180000000      1.0000000000
 F 1 
   1       0.7610000000      1.0000000000
  end;

 # Basis set for element : O 
 NewGTO O 
 S 6 
   1   27032.3826310000      0.0005722733
   2    4052.3871392000      0.0044353233
   3     922.3272271000      0.0230201076
   4     261.2407098900      0.0928224906
   5      85.3546413510      0.2937850002
   6      31.0350352450      0.6740160450
 S 2 
   1      12.2608607280      0.6383993702
   2       4.9987076005      0.3953458713
 S 1 
   1       1.1703108158      1.0000000000
 S 1 
   1       0.4647474099      1.0000000000
 S 1 
   1       0.1850453636      1.0000000000
 P 4 
   1      63.2749548010      0.0120183321
   2      14.6270493790      0.0830054217
   3       4.4501223456      0.3199174393
   4       1.5275799647      0.7071554292
 P 1 
   1       0.5293511794      1.0000000000
 P 1 
   1       0.1747842127      1.0000000000
 D 1 
   1       2.3140000000      1.0000000000
 D 1 
   1       0.6450000000      1.0000000000
 F 1 
   1       1.4280000000      1.0000000000
  end;

---------------------------------
AUXILIARY/J BASIS SET INFORMATION
---------------------------------
There are 3 groups of distinct atoms

 Group   1 Type C   : 12s5p4d2f1g contracted to 6s4p3d1f1g pattern {711111/2111/211/2/1}
 Group   2 Type H   : 5s2p1d contracted to 3s1p1d pattern {311/2/1}
 Group   3 Type O   : 12s5p4d2f1g contracted to 6s4p3d1f1g pattern {711111/2111/211/2/1}

Atom   0C    basis set group =>   1
Atom   1C    basis set group =>   1
Atom   2C    basis set group =>   1
Atom   3C    basis set group =>   1
Atom   4C    basis set group =>   1
Atom   5C    basis set group =>   1
Atom   6H    basis set group =>   2
Atom   7H    basis set group =>   2
Atom   8H    basis set group =>   2
Atom   9H    basis set group =>   2
Atom  10H    basis set group =>   2
Atom  11C    basis set group =>   1
Atom  12C    basis set group =>   1
Atom  13C    basis set group =>   1
Atom  14C    basis set group =>   1
Atom  15H    basis set group =>   2
Atom  16H    basis set group =>   2
Atom  17H    basis set group =>   2
Atom  18C    basis set group =>   1
Atom  19H    basis set group =>   2
Atom  20H    basis set group =>   2
Atom  21H    basis set group =>   2
Atom  22O    basis set group =>   3
Atom  23H    basis set group =>   2

-------------------------------------
AUXILIARY/J BASIS SET IN INPUT FORMAT
-------------------------------------

 # Auxiliary/J basis set for element : H 
 NewAuxJGTO H 
 S 3 
   1      15.6752927000      0.1007184237
   2       3.6063578000      0.3404257499
   3       1.2080016000      0.6491996172
 S 1 
   1       0.4726794000      1.0000000000
 S 1 
   1       0.2018100000      1.0000000000
 P 2 
   1       2.0281365000      0.5596620919
   2       0.5358730000      0.5596620919
 D 1 
   1       2.2165124000      1.0000000000
  end;

 # Auxiliary/J basis set for element : C 
 NewAuxJGTO C 
 S 7 
   1    1861.0916331000      0.0134602335
   2     642.9939764000      0.0299160374
   3     235.1105725000      0.1008649584
   4      90.7028894000      0.2370970548
   5      36.7794552000      0.3924037254
   6      15.6046273000      0.3195862154
   7       6.8907294000      0.0530104441
 S 1 
   1       3.1478850000     -1.0000000000
 S 1 
   1       1.4777287000      1.0000000000
 S 1 
   1       0.7076466000      1.0000000000
 S 1 
   1       0.3430122000      1.0000000000
 S 1 
   1       0.1669453000      1.0000000000
 P 2 
   1      13.5472892000     -0.6769313712
   2       5.4669419000     -0.3779500978
 P 1 
   1       2.1751721000      1.0000000000
 P 1 
   1       0.8582194000      1.0000000000
 P 1 
   1       0.3376720000      1.0000000000
 D 2 
   1       5.9287253000     -0.3533329857
   2       1.9809209000     -0.7456525731
 D 1 
   1       0.8055417000     -1.0000000000
 D 1 
   1       0.3531244000     -1.0000000000
 F 2 
   1       1.6755626000      0.6311076882
   2       0.5997536000      0.4968166032
 G 1 
   1       1.0024600000     -1.0000000000
  end;

 # Auxiliary/J basis set for element : O 
 NewAuxJGTO O 
 S 7 
   1    2876.8216605000      0.0168151159
   2    1004.7443032000      0.0340137548
   3     369.7579954000      0.1194951309
   4     142.9442404000      0.2664627624
   5      57.8366425000      0.4202764046
   6      24.3864983000      0.2765077335
   7      10.6622662000      0.0057008815
 S 1 
   1       4.8070437000     -1.0000000000
 S 1 
   1       2.2210770000      1.0000000000
 S 1 
   1       1.0447795000      1.0000000000
 S 1 
   1       0.4968425000      1.0000000000
 S 1 
   1       0.2371384000      1.0000000000
 P 2 
   1      64.2613382000     -0.2731534179
   2      16.3006076000     -0.8168011598
 P 1 
   1       4.3550542000      1.0000000000
 P 1 
   1       1.2019554000      1.0000000000
 P 1 
   1       0.3354196000      1.0000000000
 D 2 
   1       9.2146611000     -0.4661230638
   2       2.8435251000     -0.6600908911
 D 1 
   1       0.9955759000     -1.0000000000
 D 1 
   1       0.3649441000     -1.0000000000
 F 2 
   1       2.6420115000      0.5931563945
   2       0.7345613000      0.5931563945
 G 1 
   1       1.3931000000     -1.0000000000
  end;



           ************************************************************
           *        Program running with 28 parallel MPI-processes    *
           *              working on a common directory               *
           ************************************************************
------------------------------------------------------------------------------
                           ORCA GTO INTEGRAL CALCULATION
------------------------------------------------------------------------------

                         BASIS SET STATISTICS AND STARTUP INFO

 # of primitive gaussian shells          ...  312
 # of primitive gaussian functions       ...  648
 # of contracted shells                  ...  180
 # of contracted basis functions         ...  444
 Highest angular momentum                ...    3
 Maximum contraction depth               ...    6
 Integral package used                   ... LIBINT
 Integral threshhold            Thresh   ...  2.500e-11
 Primitive cut-off              TCut     ...  2.500e-12


------------------------------ INTEGRAL EVALUATION ----------------------------


 * One electron integrals 
 Pre-screening matrix                    ... done
 Shell pair data                         ... done (   0.005 sec)



           ************************************************************
           *        Program running with 28 parallel MPI-processes    *
           *              working on a common directory               *
           ************************************************************
-------------------------------------------------------------------------------
                                 ORCA SCF
-------------------------------------------------------------------------------

------------
SCF SETTINGS
------------
Hamiltonian:
 Density Functional     Method          .... DFT(GTOs)
 Exchange Functional    Exchange        .... PBE
   PBE kappa parameter   XKappa         ....  0.804000
   PBE mue parameter    XMuePBE         ....  0.219520
 Correlation Functional Correlation     .... PBE
   PBE beta parameter  CBetaPBE         ....  0.066725
 LDA part of GGA corr.  LDAOpt          .... PW91-LDA
 Gradients option       PostSCFGGA      .... off
 Hybrid DFT is turned on
   Fraction HF Exchange ScalHFX         ....  0.250000
   Scaling of DF-GGA-X  ScalDFX         ....  0.750000
   Scaling of DF-GGA-C  ScalDFC         ....  1.000000
   Scaling of DF-LDA-C  ScalLDAC        ....  1.000000
   Perturbative correction              ....  0.000000
   Density functional embedding theory  .... OFF
   NL short-range parameter             ....  6.900000


General Settings:
 Integral files         IntName         .... p1r2
 Hartree-Fock type      HFTyp           .... RHF
 Total Charge           Charge          ....    0
 Multiplicity           Mult            ....    1
 Number of Electrons    NEL             ....   86
 Basis Dimension        Dim             ....  444
 Nuclear Repulsion      ENuc            ....    613.7017185726 Eh

Convergence Acceleration:
 DIIS                   CNVDIIS         .... on
   Start iteration      DIISMaxIt       ....    12
   Startup error        DIISStart       ....  0.200000
   # of expansion vecs  DIISMaxEq       ....     5
   Bias factor          DIISBfac        ....   1.050
   Max. coefficient     DIISMaxC        ....  10.000
 Newton-Raphson         CNVNR           .... off
 SOSCF                  CNVSOSCF        .... on
   Start iteration      SOSCFMaxIt      ....   150
   Startup grad/error   SOSCFStart      ....  0.003300
 Level Shifting         CNVShift        .... on
   Level shift para.    LevelShift      ....    0.2500
   Turn off err/grad.   ShiftErr        ....    0.0010
 Zerner damping         CNVZerner       .... off
 Static damping         CNVDamp         .... on
   Fraction old density DampFac         ....    0.7000
   Max. Damping (<1)    DampMax         ....    0.9800
   Min. Damping (>=0)   DampMin         ....    0.0000
   Turn off err/grad.   DampErr         ....    0.1000
 Fernandez-Rico         CNVRico         .... off

SCF Procedure:
 Maximum # iterations   MaxIter         ....   125
 SCF integral mode      SCFMode         .... Direct
   Integral package                     .... LIBINT
 Reset frequency        DirectResetFreq ....    20
 Integral Threshold     Thresh          ....  2.500e-11 Eh
 Primitive CutOff       TCut            ....  2.500e-12 Eh

Convergence Tolerance:
 Convergence Check Mode ConvCheckMode   .... Total+1el-Energy
 Convergence forced     ConvForced      .... 1
 Energy Change          TolE            ....  1.000e-08 Eh
 1-El. energy change                    ....  1.000e-05 Eh
 Orbital Gradient       TolG            ....  1.000e-05
 Orbital Rotation angle TolX            ....  1.000e-05
 DIIS Error             TolErr          ....  5.000e-07


Diagonalization of the overlap matrix:
Smallest eigenvalue                        ... 7.654e-06
Time for diagonalization                   ...    0.027 sec
Threshold for overlap eigenvalues          ... 1.000e-08
Number of eigenvalues below threshold      ... 0
Time for construction of square roots      ...    0.033 sec
Total time needed                          ...    0.062 sec

-------------------
DFT GRID GENERATION
-------------------

General Integration Accuracy     IntAcc      ...  4.340
Radial Grid Type                 RadialGrid  ... Gauss-Chebyshev
Angular Grid (max. acc.)         AngularGrid ... Lebedev-110
Angular grid pruning method      GridPruning ... 3 (G Style)
Weight generation scheme         WeightScheme... Becke
Basis function cutoff            BFCut       ...    1.0000e-11
Integration weight cutoff        WCut        ...    1.0000e-14
Grids for H and He will be reduced by one unit

# of grid points (after initial pruning)     ...  29460 (   0.0 sec)
# of grid points (after weights+screening)   ...  26938 (   0.0 sec)
nearest neighbour list constructed           ...    0.0 sec
Grid point re-assignment to atoms done       ...    0.0 sec
Grid point division into batches done        ...    0.0 sec
Reduced shell lists constructed in    0.0 sec

Total number of grid points                  ...    26938
Total number of batches                      ...      434
Average number of points per batch           ...       62
Average number of grid points per atom       ...     1122
Average number of shells per batch           ...    96.41 (53.56%)
Average number of basis functions per batch  ...   245.12 (55.21%)
Average number of large shells per batch     ...    71.65 (74.31%)
Average number of large basis fcns per batch ...   192.82 (78.67%)
Maximum spatial batch extension              ...   3.60, 14.49, 14.52 au
Average spatial batch extension              ...   0.07,  0.11,  0.11 au

Time for grid setup =    0.093 sec

------------------------------
INITIAL GUESS: MODEL POTENTIAL
------------------------------
Loading Hartree-Fock densities                     ... done
Calculating cut-offs                               ... done
Setting up the integral package                    ... done
Initializing the effective Hamiltonian             ... done
Starting the Coulomb interaction                   ... done (   0.0 sec)
Reading the grid                                   ... done
Mapping shells                                     ... done
Starting the XC term evaluation                    ... done (   0.1 sec)
  promolecular density results
     # of electrons  =     86.017241722
     EX              =    -67.931587945
     EC              =     -2.829690833
     EX+EC           =    -70.761278778
Transforming the Hamiltonian                       ... done (   0.0 sec)
Diagonalizing the Hamiltonian                      ... done (   0.0 sec)
Back transforming the eigenvectors                 ... done (   0.0 sec)
Now organizing SCF variables                       ... done
                      ------------------
                      INITIAL GUESS DONE (   0.4 sec)
                      ------------------
--------------
SCF ITERATIONS
--------------
               ***  Starting incremental Fock matrix formation  ***

                         ----------------------------
                         !        ITERATION     0   !
                         ----------------------------
   Total Energy        :    -500.822486368025 Eh
   Energy Change       :    -500.822486368025 Eh
   MAX-DP              :       0.690634451726
   RMS-DP              :       0.003008252777
   Actual Damping      :       0.7000
   Actual Level Shift  :       0.2500 Eh
   Int. Num. El.       :    86.01070561 (UP=   43.00535280 DN=   43.00535280)
   Exchange            :   -52.84236007
   Correlation         :    -2.86652569


                         ----------------------------
                         !        ITERATION     1   !
                         ----------------------------
   Total Energy        :    -500.967247009195 Eh
   Energy Change       :      -0.144760641170 Eh
   MAX-DP              :       0.578327039201
   RMS-DP              :       0.002437696600
   Actual Damping      :       0.7000
   Actual Level Shift  :       0.2500 Eh
   Int. Num. El.       :    86.01219230 (UP=   43.00609615 DN=   43.00609615)
   Exchange            :   -52.45895774
   Correlation         :    -2.85419389

                               ***Turning on DIIS***

                         ----------------------------
                         !        ITERATION     2   !
                         ----------------------------
   Total Energy        :    -501.031568813861 Eh
   Energy Change       :      -0.064321804666 Eh
   MAX-DP              :       0.654616592694
   RMS-DP              :       0.003106147827
   Actual Damping      :       0.0000
   Actual Level Shift  :       0.2500 Eh
   Int. Num. El.       :    86.01339278 (UP=   43.00669639 DN=   43.00669639)
   Exchange            :   -52.19942359
   Correlation         :    -2.84511424
   DIIS-Error          :       0.038268877783


                         ----------------------------
                         !        ITERATION     3   !
                         ----------------------------
   Total Energy        :    -501.125633563711 Eh
   Energy Change       :      -0.094064749850 Eh
   MAX-DP              :       0.595616350985
   RMS-DP              :       0.002413570093
   Actual Damping      :       0.0000
   Actual Level Shift  :       0.2500 Eh
   Int. Num. El.       :    86.01560928 (UP=   43.00780464 DN=   43.00780464)
   Exchange            :   -51.79017239
   Correlation         :    -2.83273671
   DIIS-Error          :       0.055444597981
   DIIS coefficients:
      0.51328   0.48672


                         ----------------------------
                         !        ITERATION     4   !
                         ----------------------------
   Total Energy        :    -501.147721940763 Eh
   Energy Change       :      -0.022088377052 Eh
   MAX-DP              :       0.105369499302
   RMS-DP              :       0.000507955208
   Actual Damping      :       0.0000
   Actual Level Shift  :       0.2500 Eh
   Int. Num. El.       :    86.01484618 (UP=   43.00742309 DN=   43.00742309)
   Exchange            :   -51.96140648
   Correlation         :    -2.83941956
   DIIS-Error          :       0.009380361935
   DIIS coefficients:
      0.16819   0.03696   0.79484


                         ----------------------------
                         !        ITERATION     5   !
                         ----------------------------
   Total Energy        :    -501.148624321067 Eh
   Energy Change       :      -0.000902380304 Eh
   MAX-DP              :       0.069681629032
   RMS-DP              :       0.000283853664
   Actual Damping      :       0.0000
   Actual Level Shift  :       0.2500 Eh
   Int. Num. El.       :    86.01464199 (UP=   43.00732099 DN=   43.00732099)
   Exchange            :   -51.98562933
   Correlation         :    -2.84100820
   DIIS-Error          :       0.007561499717
   DIIS coefficients:
      0.04172  -0.01785   0.23607   0.74006

                      *** Initiating the SOSCF procedure ***
                           *** Shutting down DIIS ***
                      *** Re-Reading the Fockian *** 
                      *** Removing any level shift *** 

                         ----------------------------
                         !        ITERATION     6   !
                         ----------------------------
   Total Energy        :    -501.148711266251 Eh
   Energy Change       :      -0.000086945184 Eh
   MAX-DP              :       0.015527510974
   RMS-DP              :       0.000072523667
   Orbital gradient    :       0.000191111512
   Orbital Rotation    :       0.000191111512
   Actual Damping      :       0.0000
   Int. Num. El.       :    86.01461006 (UP=   43.00730503 DN=   43.00730503)
   Exchange            :   -51.99552897
   Correlation         :    -2.84138108

               *** Restarting incremental Fock matrix formation ***

                         ----------------------------
                         !        ITERATION     7   !
                         ----------------------------
   Total Energy        :    -501.148716428700 Eh
   Energy Change       :      -0.000005162449 Eh
   MAX-DP              :       0.007963334228
   RMS-DP              :       0.000042613354
   Orbital gradient    :       0.000127175447
   Orbital Rotation    :       0.000416322028
   Actual Damping      :       0.0000
   Int. Num. El.       :    86.01460138 (UP=   43.00730069 DN=   43.00730069)
   Exchange            :   -51.99584689
   Correlation         :    -2.84150179


                         ----------------------------
                         !        ITERATION     8   !
                         ----------------------------
   Total Energy        :    -501.148716416107 Eh
   Energy Change       :       0.000000012593 Eh
   MAX-DP              :       0.001601926915
   RMS-DP              :       0.000009052958
   Orbital gradient    :       0.000155158835
   Orbital Rotation    :       0.000254138290
   Actual Damping      :       0.0000
   Int. Num. El.       :    86.01460273 (UP=   43.00730137 DN=   43.00730137)
   Exchange            :   -51.99592048
   Correlation         :    -2.84151177


                         ----------------------------
                         !        ITERATION     9   !
                         ----------------------------
   Total Energy        :    -501.148717228455 Eh
   Energy Change       :      -0.000000812349 Eh
   MAX-DP              :       0.001971611927
   RMS-DP              :       0.000009828841
   Orbital gradient    :       0.000060931051
   Orbital Rotation    :       0.000144145455
   Actual Damping      :       0.0000
   Int. Num. El.       :    86.01460208 (UP=   43.00730104 DN=   43.00730104)
   Exchange            :   -51.99599284
   Correlation         :    -2.84152981


                         ----------------------------
                         !        ITERATION    10   !
                         ----------------------------
   Total Energy        :    -501.148717141981 Eh
   Energy Change       :       0.000000086475 Eh
   MAX-DP              :       0.000467699066
   RMS-DP              :       0.000002702889
   Orbital gradient    :       0.000081364892
   Orbital Rotation    :       0.000121174191
   Actual Damping      :       0.0000
   Int. Num. El.       :    86.01460171 (UP=   43.00730086 DN=   43.00730086)
   Exchange            :   -51.99593700
   Correlation         :    -2.84152822


                         ----------------------------
                         !        ITERATION    11   !
                         ----------------------------
   Total Energy        :    -501.148717297452 Eh
   Energy Change       :      -0.000000155471 Eh
   MAX-DP              :       0.000170642047
   RMS-DP              :       0.000001045246
   Orbital gradient    :       0.000011271386
   Orbital Rotation    :       0.000042642333
   Actual Damping      :       0.0000
   Int. Num. El.       :    86.01460234 (UP=   43.00730117 DN=   43.00730117)
   Exchange            :   -51.99593474
   Correlation         :    -2.84152415


                         ----------------------------
                         !        ITERATION    12   !
                         ----------------------------
   Total Energy        :    -501.148717291533 Eh
   Energy Change       :       0.000000005919 Eh
   MAX-DP              :       0.000031182704
   RMS-DP              :       0.000000351260
   Orbital gradient    :       0.000013755013
   Orbital Rotation    :       0.000022709755
   Actual Damping      :       0.0000
   Int. Num. El.       :    86.01460206 (UP=   43.00730103 DN=   43.00730103)
   Exchange            :   -51.99595985
   Correlation         :    -2.84152534

                  ***Gradient check signals convergence***
              ***Rediagonalizing the Fockian in SOSCF/NRSCF***

               *****************************************************
               *                     SUCCESS                       *
               *           SCF CONVERGED AFTER  13 CYCLES          *
               *****************************************************

Setting up the final grid:

General Integration Accuracy     IntAcc      ...  4.670
Radial Grid Type                 RadialGrid  ... Gauss-Chebyshev
Angular Grid (max. acc.)         AngularGrid ... Lebedev-302
Angular grid pruning method      GridPruning ... 3 (G Style)
Weight generation scheme         WeightScheme... Becke
Basis function cutoff            BFCut       ...    1.0000e-11
Integration weight cutoff        WCut        ...    1.0000e-14
Grids for H and He will be reduced by one unit

# of grid points (after initial pruning)     ... 115272 (   0.0 sec)
# of grid points (after weights+screening)   ... 103997 (   0.1 sec)
nearest neighbour list constructed           ...    0.0 sec
Grid point re-assignment to atoms done       ...    0.0 sec
Grid point division into batches done        ...    0.5 sec
Reduced shell lists constructed in    0.6 sec

Total number of grid points                  ...   103997
Total number of batches                      ...     1636
Average number of points per batch           ...       63
Average number of grid points per atom       ...     4333
Average number of shells per batch           ...    94.95 (52.75%)
Average number of basis functions per batch  ...   240.28 (54.12%)
Average number of large shells per batch     ...    69.23 (72.92%)
Average number of large basis fcns per batch ...   183.87 (76.52%)
Maximum spatial batch extension              ...   3.50, 12.83, 12.74 au
Average spatial batch extension              ...   0.04,  0.06,  0.06 au

Final grid set up in    0.7 sec
Final integration                            ... done (   0.3 sec)
Change in XC energy                          ...     0.001953569
Integrated number of electrons               ...    85.999905943
Previous integrated no of electrons          ...    86.014602147

----------------
TOTAL SCF ENERGY
----------------

Total Energy       :         -501.14676373 Eh          -13636.89673 eV

Components:
Nuclear Repulsion  :          613.70171857 Eh           16699.67276 eV
Electronic Energy  :        -1114.84848230 Eh          -30336.56948 eV
One Electron Energy:        -1894.39857561 Eh          -51549.20595 eV
Two Electron Energy:          779.55009331 Eh           21212.63647 eV

Virial components:
Potential Energy   :         -999.89710195 Eh          -27208.58340 eV
Kinetic Energy     :          498.75033822 Eh           13571.68667 eV
Virial Ratio       :            2.00480486


DFT components:
N(Alpha)           :       42.999952971355 electrons
N(Beta)            :       42.999952971355 electrons
N(Total)           :       85.999905942710 electrons
E(X)               :      -51.994120257759 Eh       
E(C)               :       -2.841404396544 Eh       
E(XC)              :      -54.835524654302 Eh       
DFET-embed. en.    :        0.000000000000 Eh       

---------------
SCF CONVERGENCE
---------------

  Last Energy change         ...   -5.9355e-09  Tolerance :   1.0000e-08
  Last MAX-Density change    ...    2.0276e-04  Tolerance :   1.0000e-07
  Last RMS-Density change    ...    9.3646e-07  Tolerance :   5.0000e-09
  Last Orbital Gradient      ...    1.0567e-06  Tolerance :   1.0000e-05
  Last Orbital Rotation      ...    3.1342e-06  Tolerance :   1.0000e-05

             **** THE GBW FILE WAS UPDATED (p1r2.gbw) ****
             **** DENSITY FILE WAS UPDATED (p1r2.scfp) ****
             **** ENERGY FILE WAS UPDATED (p1r2.en.tmp) ****
             **** THE GBW FILE WAS UPDATED (p1r2.gbw) ****
             **** DENSITY FILE WAS UPDATED (p1r2.scfp) ****
----------------
ORBITAL ENERGIES
----------------

  NO   OCC          E(Eh)            E(eV) 
   0   2.0000     -19.207387      -522.6596 
   1   2.0000     -10.305354      -280.4229 
   2   2.0000     -10.256918      -279.1049 
   3   2.0000     -10.236335      -278.5448 
   4   2.0000     -10.236046      -278.5370 
   5   2.0000     -10.234811      -278.5034 
   6   2.0000     -10.234135      -278.4850 
   7   2.0000     -10.233781      -278.4753 
   8   2.0000     -10.226275      -278.2711 
   9   2.0000     -10.222198      -278.1601 
  10   2.0000     -10.217125      -278.0221 
  11   2.0000     -10.213039      -277.9109 
  12   2.0000      -1.060921       -28.8691 
  13   2.0000      -0.898523       -24.4501 
  14   2.0000      -0.830392       -22.5961 
  15   2.0000      -0.805762       -21.9259 
  16   2.0000      -0.780321       -21.2336 
  17   2.0000      -0.748004       -20.3542 
  18   2.0000      -0.719706       -19.5842 
  19   2.0000      -0.655795       -17.8451 
  20   2.0000      -0.634336       -17.2612 
  21   2.0000      -0.621555       -16.9134 
  22   2.0000      -0.569340       -15.4925 
  23   2.0000      -0.551410       -15.0046 
  24   2.0000      -0.499580       -13.5943 
  25   2.0000      -0.481934       -13.1141 
  26   2.0000      -0.478765       -13.0279 
  27   2.0000      -0.464323       -12.6349 
  28   2.0000      -0.454753       -12.3745 
  29   2.0000      -0.443053       -12.0561 
  30   2.0000      -0.416440       -11.3319 
  31   2.0000      -0.407574       -11.0907 
  32   2.0000      -0.401713       -10.9312 
  33   2.0000      -0.397759       -10.8236 
  34   2.0000      -0.380008       -10.3405 
  35   2.0000      -0.375382       -10.2147 
  36   2.0000      -0.366600        -9.9757 
  37   2.0000      -0.359489        -9.7822 
  38   2.0000      -0.327499        -8.9117 
  39   2.0000      -0.301474        -8.2035 
  40   2.0000      -0.282449        -7.6858 
  41   2.0000      -0.276844        -7.5333 
  42   2.0000      -0.247020        -6.7218 
  43   0.0000      -0.037256        -1.0138 
  44   0.0000      -0.013652        -0.3715 
  45   0.0000       0.034423         0.9367 
  46   0.0000       0.048987         1.3330 
  47   0.0000       0.055990         1.5236 
  48   0.0000       0.069302         1.8858 
  49   0.0000       0.084988         2.3126 
  50   0.0000       0.092645         2.5210 
  51   0.0000       0.094486         2.5711 
  52   0.0000       0.101799         2.7701 
  53   0.0000       0.105225         2.8633 
  54   0.0000       0.113930         3.1002 
  55   0.0000       0.117193         3.1890 
  56   0.0000       0.126357         3.4383 
  57   0.0000       0.131446         3.5768 
  58   0.0000       0.140032         3.8105 
  59   0.0000       0.148458         4.0397 
  60   0.0000       0.158151         4.3035 
  61   0.0000       0.164942         4.4883 
  62   0.0000       0.171722         4.6728 
  63   0.0000       0.187021         5.0891 
  64   0.0000       0.188929         5.1410 
  65   0.0000       0.205252         5.5852 
  66   0.0000       0.208374         5.6701 
  67   0.0000       0.215382         5.8608 
  68   0.0000       0.225165         6.1271 
  69   0.0000       0.236169         6.4265 
  70   0.0000       0.238842         6.4992 
  71   0.0000       0.240942         6.5564 
  72   0.0000       0.247961         6.7474 
  73   0.0000       0.255080         6.9411 
  74   0.0000       0.263225         7.1627 
  75   0.0000       0.267115         7.2686 
  76   0.0000       0.277776         7.5587 
  77   0.0000       0.293921         7.9980 
  78   0.0000       0.297070         8.0837 
  79   0.0000       0.308703         8.4002 
  80   0.0000       0.323422         8.8008 
  81   0.0000       0.331086         9.0093 
  82   0.0000       0.333160         9.0657 
  83   0.0000       0.336885         9.1671 
  84   0.0000       0.354253         9.6397 
  85   0.0000       0.356428         9.6989 
  86   0.0000       0.357415         9.7257 
  87   0.0000       0.369210        10.0467 
  88   0.0000       0.381805        10.3894 
  89   0.0000       0.389379        10.5956 
  90   0.0000       0.395960        10.7746 
  91   0.0000       0.403108        10.9691 
  92   0.0000       0.406731        11.0677 
  93   0.0000       0.412934        11.2365 
  94   0.0000       0.417685        11.3658 
  95   0.0000       0.424978        11.5642 
  96   0.0000       0.427616        11.6360 
  97   0.0000       0.430098        11.7036 
  98   0.0000       0.446144        12.1402 
  99   0.0000       0.447452        12.1758 
 100   0.0000       0.452803        12.3214 
 101   0.0000       0.465886        12.6774 
 102   0.0000       0.472181        12.8487 
 103   0.0000       0.480154        13.0656 
 104   0.0000       0.483504        13.1568 
 105   0.0000       0.485379        13.2078 
 106   0.0000       0.490252        13.3404 
 107   0.0000       0.497190        13.5292 
 108   0.0000       0.501401        13.6438 
 109   0.0000       0.506879        13.7929 
 110   0.0000       0.517524        14.0826 
 111   0.0000       0.530182        14.4270 
 112   0.0000       0.543597        14.7920 
 113   0.0000       0.565838        15.3972 
 114   0.0000       0.574448        15.6315 
 115   0.0000       0.593645        16.1539 
 116   0.0000       0.606126        16.4935 
 117   0.0000       0.619317        16.8525 
 118   0.0000       0.629835        17.1387 
 119   0.0000       0.638879        17.3848 
 120   0.0000       0.642888        17.4939 
 121   0.0000       0.658116        17.9082 
 122   0.0000       0.681240        18.5375 
 123   0.0000       0.682500        18.5718 
 124   0.0000       0.691270        18.8104 
 125   0.0000       0.692544        18.8451 
 126   0.0000       0.707391        19.2491 
 127   0.0000       0.724177        19.7059 
 128   0.0000       0.741957        20.1897 
 129   0.0000       0.745558        20.2877 
 130   0.0000       0.750044        20.4097 
 131   0.0000       0.753553        20.5052 
 132   0.0000       0.769708        20.9448 
 133   0.0000       0.794006        21.6060 
 134   0.0000       0.813104        22.1257 
 135   0.0000       0.821497        22.3541 
 136   0.0000       0.831112        22.6157 
 137   0.0000       0.844661        22.9844 
 138   0.0000       0.854884        23.2626 
 139   0.0000       0.860319        23.4105 
 140   0.0000       0.864474        23.5235 
 141   0.0000       0.880709        23.9653 
 142   0.0000       0.892252        24.2794 
 143   0.0000       0.900982        24.5170 
 144   0.0000       0.916802        24.9475 
 145   0.0000       0.924974        25.1698 
 146   0.0000       0.949321        25.8323 
 147   0.0000       0.957460        26.0538 
 148   0.0000       0.980201        26.6726 
 149   0.0000       0.997663        27.1478 
 150   0.0000       1.009717        27.4758 
 151   0.0000       1.012013        27.5383 
 152   0.0000       1.017027        27.6747 
 153   0.0000       1.032158        28.0864 
 154   0.0000       1.053686        28.6723 
 155   0.0000       1.061271        28.8787 
 156   0.0000       1.071883        29.1674 
 157   0.0000       1.080508        29.4021 
 158   0.0000       1.090445        29.6725 
 159   0.0000       1.113444        30.2984 
 160   0.0000       1.148694        31.2576 
 161   0.0000       1.158082        31.5130 
 162   0.0000       1.164376        31.6843 
 163   0.0000       1.172830        31.9143 
 164   0.0000       1.194294        32.4984 
 165   0.0000       1.214148        33.0386 
 166   0.0000       1.219698        33.1897 
 167   0.0000       1.226043        33.3623 
 168   0.0000       1.234776        33.6000 
 169   0.0000       1.239381        33.7253 
 170   0.0000       1.255604        34.1667 
 171   0.0000       1.279233        34.8097 
 172   0.0000       1.294580        35.2273 
 173   0.0000       1.312431        35.7131 
 174   0.0000       1.329354        36.1736 
 175   0.0000       1.366522        37.1850 
 176   0.0000       1.370225        37.2857 
 177   0.0000       1.384586        37.6765 
 178   0.0000       1.388799        37.7911 
 179   0.0000       1.444068        39.2951 
 180   0.0000       1.451525        39.4980 
 181   0.0000       1.458258        39.6812 
 182   0.0000       1.470626        40.0178 
 183   0.0000       1.486328        40.4450 
 184   0.0000       1.492932        40.6247 
 185   0.0000       1.504290        40.9338 
 186   0.0000       1.504988        40.9528 
 187   0.0000       1.523757        41.4635 
 188   0.0000       1.536243        41.8033 
 189   0.0000       1.544162        42.0188 
 190   0.0000       1.549105        42.1533 
 191   0.0000       1.552656        42.2499 
 192   0.0000       1.569252        42.7015 
 193   0.0000       1.576402        42.8961 
 194   0.0000       1.587230        43.1907 
 195   0.0000       1.593930        43.3730 
 196   0.0000       1.608470        43.7687 
 197   0.0000       1.620020        44.0830 
 198   0.0000       1.629921        44.3524 
 199   0.0000       1.636851        44.5410 
 200   0.0000       1.647013        44.8175 
 201   0.0000       1.654946        45.0334 
 202   0.0000       1.669829        45.4383 
 203   0.0000       1.695518        46.1374 
 204   0.0000       1.697280        46.1853 
 205   0.0000       1.706908        46.4473 
 206   0.0000       1.721213        46.8366 
 207   0.0000       1.724751        46.9328 
 208   0.0000       1.728241        47.0278 
 209   0.0000       1.769161        48.1413 
 210   0.0000       1.773465        48.2584 
 211   0.0000       1.783930        48.5432 
 212   0.0000       1.809810        49.2474 
 213   0.0000       1.840938        50.0945 
 214   0.0000       1.850205        50.3466 
 215   0.0000       1.857710        50.5509 
 216   0.0000       1.898014        51.6476 
 217   0.0000       1.908535        51.9339 
 218   0.0000       1.914752        52.1031 
 219   0.0000       1.935895        52.6784 
 220   0.0000       1.958248        53.2866 
 221   0.0000       1.970090        53.6089 
 222   0.0000       1.997243        54.3478 
 223   0.0000       1.999128        54.3990 
 224   0.0000       2.025978        55.1297 
 225   0.0000       2.043318        55.6015 
 226   0.0000       2.046546        55.6894 
 227   0.0000       2.061548        56.0976 
 228   0.0000       2.078572        56.5608 
 229   0.0000       2.086212        56.7687 
 230   0.0000       2.097444        57.0744 
 231   0.0000       2.120695        57.7070 
 232   0.0000       2.138008        58.1782 
 233   0.0000       2.157460        58.7075 
 234   0.0000       2.168245        59.0010 
 235   0.0000       2.173517        59.1444 
 236   0.0000       2.200036        59.8660 
 237   0.0000       2.216389        60.3110 
 238   0.0000       2.228751        60.6474 
 239   0.0000       2.250339        61.2348 
 240   0.0000       2.257261        61.4232 
 241   0.0000       2.269285        61.7504 
 242   0.0000       2.293458        62.4082 
 243   0.0000       2.308258        62.8109 
 244   0.0000       2.333637        63.5015 
 245   0.0000       2.342978        63.7557 
 246   0.0000       2.352719        64.0207 
 247   0.0000       2.362591        64.2894 
 248   0.0000       2.383211        64.8505 
 249   0.0000       2.397053        65.2271 
 250   0.0000       2.402192        65.3670 
 251   0.0000       2.426380        66.0252 
 252   0.0000       2.442520        66.4644 
 253   0.0000       2.462494        67.0079 
 254   0.0000       2.474282        67.3286 
 255   0.0000       2.490058        67.7579 
 256   0.0000       2.514061        68.4111 
 257   0.0000       2.531409        68.8832 
 258   0.0000       2.540333        69.1260 
 259   0.0000       2.544660        69.2437 
 260   0.0000       2.565839        69.8200 
 261   0.0000       2.575141        70.0731 
 262   0.0000       2.590749        70.4979 
 263   0.0000       2.600705        70.7688 
 264   0.0000       2.604285        70.8662 
 265   0.0000       2.628452        71.5238 
 266   0.0000       2.632728        71.6402 
 267   0.0000       2.634568        71.6902 
 268   0.0000       2.640045        71.8393 
 269   0.0000       2.642933        71.9179 
 270   0.0000       2.669080        72.6293 
 271   0.0000       2.671610        72.6982 
 272   0.0000       2.680880        72.9504 
 273   0.0000       2.690175        73.2034 
 274   0.0000       2.698735        73.4363 
 275   0.0000       2.709041        73.7168 
 276   0.0000       2.722986        74.0962 
 277   0.0000       2.741247        74.5931 
 278   0.0000       2.750018        74.8318 
 279   0.0000       2.766759        75.2873 
 280   0.0000       2.774345        75.4938 
 281   0.0000       2.783788        75.7507 
 282   0.0000       2.789598        75.9088 
 283   0.0000       2.808903        76.4341 
 284   0.0000       2.809201        76.4422 
 285   0.0000       2.828408        76.9649 
 286   0.0000       2.835647        77.1619 
 287   0.0000       2.838928        77.2512 
 288   0.0000       2.842347        77.3442 
 289   0.0000       2.856913        77.7406 
 290   0.0000       2.877120        78.2904 
 291   0.0000       2.884503        78.4913 
 292   0.0000       2.895162        78.7814 
 293   0.0000       2.903760        79.0153 
 294   0.0000       2.919237        79.4365 
 295   0.0000       2.941763        80.0494 
 296   0.0000       2.951643        80.3183 
 297   0.0000       2.980862        81.1134 
 298   0.0000       2.987463        81.2930 
 299   0.0000       2.997431        81.5642 
 300   0.0000       3.009448        81.8913 
 301   0.0000       3.031712        82.4971 
 302   0.0000       3.044232        82.8378 
 303   0.0000       3.051567        83.0374 
 304   0.0000       3.059073        83.2416 
 305   0.0000       3.069960        83.5379 
 306   0.0000       3.085560        83.9624 
 307   0.0000       3.107261        84.5529 
 308   0.0000       3.113792        84.7306 
 309   0.0000       3.121178        84.9316 
 310   0.0000       3.135190        85.3128 
 311   0.0000       3.140102        85.4465 
 312   0.0000       3.151992        85.7701 
 313   0.0000       3.155647        85.8695 
 314   0.0000       3.160971        86.0144 
 315   0.0000       3.168219        86.2116 
 316   0.0000       3.179785        86.5263 
 317   0.0000       3.189368        86.7871 
 318   0.0000       3.217110        87.5420 
 319   0.0000       3.232236        87.9536 
 320   0.0000       3.246507        88.3419 
 321   0.0000       3.263201        88.7962 
 322   0.0000       3.265572        88.8607 
 323   0.0000       3.276886        89.1686 
 324   0.0000       3.292816        89.6021 
 325   0.0000       3.297246        89.7226 
 326   0.0000       3.312548        90.1390 
 327   0.0000       3.326581        90.5209 
 328   0.0000       3.334684        90.7414 
 329   0.0000       3.355273        91.3016 
 330   0.0000       3.361258        91.4645 
 331   0.0000       3.363947        91.5377 
 332   0.0000       3.371600        91.7459 
 333   0.0000       3.388430        92.2039 
 334   0.0000       3.391607        92.2903 
 335   0.0000       3.398064        92.4660 
 336   0.0000       3.416949        92.9799 
 337   0.0000       3.418059        93.0101 
 338   0.0000       3.423514        93.1585 
 339   0.0000       3.447758        93.8183 
 340   0.0000       3.477041        94.6151 
 341   0.0000       3.483301        94.7854 
 342   0.0000       3.493010        95.0496 
 343   0.0000       3.502608        95.3108 
 344   0.0000       3.510278        95.5195 
 345   0.0000       3.530151        96.0603 
 346   0.0000       3.537984        96.2734 
 347   0.0000       3.561132        96.9033 
 348   0.0000       3.566239        97.0423 
 349   0.0000       3.584510        97.5395 
 350   0.0000       3.589549        97.6766 
 351   0.0000       3.613391        98.3254 
 352   0.0000       3.646161        99.2171 
 353   0.0000       3.683792       100.2411 
 354   0.0000       3.692946       100.4902 
 355   0.0000       3.733261       101.5872 
 356   0.0000       3.744200       101.8849 
 357   0.0000       3.755752       102.1992 
 358   0.0000       3.776371       102.7603 
 359   0.0000       3.797664       103.3397 
 360   0.0000       3.831051       104.2482 
 361   0.0000       3.872945       105.3882 
 362   0.0000       3.880515       105.5942 
 363   0.0000       3.900422       106.1359 
 364   0.0000       3.934265       107.0568 
 365   0.0000       3.948045       107.4318 
 366   0.0000       3.989787       108.5676 
 367   0.0000       3.999691       108.8371 
 368   0.0000       4.029686       109.6533 
 369   0.0000       4.049337       110.1881 
 370   0.0000       4.062097       110.5353 
 371   0.0000       4.079121       110.9985 
 372   0.0000       4.101904       111.6185 
 373   0.0000       4.116495       112.0155 
 374   0.0000       4.127098       112.3040 
 375   0.0000       4.134549       112.5068 
 376   0.0000       4.143906       112.7614 
 377   0.0000       4.187373       113.9442 
 378   0.0000       4.196570       114.1945 
 379   0.0000       4.212966       114.6406 
 380   0.0000       4.222192       114.8917 
 381   0.0000       4.227905       115.0472 
 382   0.0000       4.245682       115.5309 
 383   0.0000       4.259009       115.8935 
 384   0.0000       4.276385       116.3663 
 385   0.0000       4.295472       116.8857 
 386   0.0000       4.314468       117.4026 
 387   0.0000       4.347903       118.3125 
 388   0.0000       4.390974       119.4845 
 389   0.0000       4.401974       119.7838 
 390   0.0000       4.409048       119.9763 
 391   0.0000       4.421200       120.3070 
 392   0.0000       4.454705       121.2187 
 393   0.0000       4.515601       122.8758 
 394   0.0000       4.538283       123.4930 
 395   0.0000       4.593195       124.9872 
 396   0.0000       4.650499       126.5465 
 397   0.0000       4.675835       127.2359 
 398   0.0000       4.696966       127.8109 
 399   0.0000       4.707839       128.1068 
 400   0.0000       4.731968       128.7634 
 401   0.0000       4.752032       129.3094 
 402   0.0000       4.798648       130.5778 
 403   0.0000       4.863982       132.3557 
 404   0.0000       4.871317       132.5553 
 405   0.0000       4.902708       133.4095 
 406   0.0000       4.911560       133.6503 
 407   0.0000       4.943813       134.5280 
 408   0.0000       4.980560       135.5279 
 409   0.0000       5.144028       139.9761 
 410   0.0000       5.202661       141.5716 
 411   0.0000       5.262106       143.1892 
 412   0.0000       5.269643       143.3943 
 413   0.0000       5.313632       144.5913 
 414   0.0000       5.331188       145.0690 
 415   0.0000       5.351338       145.6173 
 416   0.0000       5.429252       147.7375 
 417   0.0000       5.460171       148.5788 
 418   0.0000       5.546743       150.9345 
 419   0.0000       5.593026       152.1940 
 420   0.0000       5.625748       153.0844 
 421   0.0000       5.747042       156.3850 
 422   0.0000       5.772490       157.0774 
 423   0.0000       5.842707       158.9882 
 424   0.0000       5.864128       159.5710 
 425   0.0000       5.993276       163.0853 
 426   0.0000       6.345766       172.6771 
 427   0.0000       6.547998       178.1801 
 428   0.0000       6.774688       184.3486 
 429   0.0000       6.893744       187.5883 
 430   0.0000       7.022049       191.0797 
 431   0.0000       7.237959       196.9549 
 432   0.0000      22.268501       605.9567 
 433   0.0000      22.460819       611.1899 
 434   0.0000      22.472866       611.5178 
 435   0.0000      22.673949       616.9895 
 436   0.0000      22.693469       617.5207 
 437   0.0000      22.812039       620.7471 
 438   0.0000      22.814423       620.8120 
 439   0.0000      22.919759       623.6783 
 440   0.0000      23.262186       632.9963 
 441   0.0000      23.761859       646.5930 
 442   0.0000      24.289020       660.9378 
 443   0.0000      44.145633      1201.2637 
------------------
MOLECULAR ORBITALS
------------------
                      0         1         2         3         4         5   
                 -19.20739 -10.30535 -10.25692 -10.23634 -10.23605 -10.23481
                   2.00000   2.00000   2.00000   2.00000   2.00000   2.00000
                  --------  --------  --------  --------  --------  --------
  0C   1s        -0.000000  0.000009  0.000024 -0.074703 -0.003068 -0.205796
  0C   2s         0.000000 -0.000008  0.000033 -0.097484 -0.004103 -0.268276
  0C   3s        -0.000003  0.000132  0.001165 -0.005802  0.000504 -0.015931
  0C   4s        -0.000051  0.000184 -0.010146 -0.008068  0.002388 -0.002238
  0C   5s        -0.000814 -0.002077  0.003542  0.018661  0.017596  0.006489
  0C   1pz        0.000001 -0.000020 -0.000030 -0.000009 -0.000058  0.000379
  0C   1px        0.000004  0.000012  0.000259 -0.000432  0.000062  0.000358
  0C   1py       -0.000002 -0.000017 -0.000044  0.000017 -0.000058  0.000341
  0C   2pz       -0.000028 -0.000042  0.001731  0.003699 -0.001131 -0.003397
  0C   2px       -0.000143  0.000565 -0.008473  0.005160 -0.000785 -0.014763
  0C   2py        0.000015 -0.000095  0.002133  0.003225 -0.001032 -0.002408
  0C   3pz       -0.000013  0.000175 -0.000017 -0.002870 -0.005280 -0.003313
  0C   3px       -0.000462 -0.000677 -0.001025  0.005706  0.002934  0.000205
  0C   3py        0.000016  0.000227  0.000036 -0.003050 -0.005193 -0.003165
  0C   1dz2       0.000001 -0.000001  0.000037 -0.000139 -0.000005  0.000210
  0C   1dxz      -0.000003 -0.000011  0.000016 -0.000044  0.000055  0.000120
  0C   1dyz      -0.000001  0.000012 -0.000067 -0.000172  0.000047 -0.000278
  0C   1dx2y2    -0.000001 -0.000000 -0.000067  0.000218  0.000020 -0.000373
  0C   1dxy       0.000000 -0.000013  0.000027 -0.000057  0.000047  0.000172
  0C   2dz2       0.000034 -0.000086  0.001146 -0.001662 -0.000319  0.002413
  0C   2dxz       0.000032 -0.000077  0.001438 -0.001647  0.001412  0.004070
  0C   2dyz       0.000029 -0.000107  0.000200 -0.001852 -0.000347  0.002100
  0C   2dx2y2    -0.000026  0.000129 -0.001796  0.002500  0.000678 -0.003500
  0C   2dxy       0.000041 -0.000089  0.001570 -0.001758  0.001292  0.004169
  0C   1f0        0.000001 -0.000001 -0.000043 -0.000020  0.000031  0.000369
  0C   1f+1       0.000002 -0.000001  0.000044 -0.000542 -0.000024  0.000229
  0C   1f-1      -0.000003 -0.000001 -0.000019  0.000096 -0.000052 -0.000386
  0C   1f+2      -0.000000  0.000004  0.000032 -0.000032  0.000025  0.000061
  0C   1f-2      -0.000001  0.000004 -0.000206  0.000227 -0.000098 -0.000443
  0C   1f+3      -0.000001 -0.000000  0.000062 -0.000711 -0.000018  0.000395
  0C   1f-3      -0.000006  0.000002 -0.000077  0.000137  0.000008  0.000169
  1C   1s         0.000000  0.000020  0.006524 -0.460650 -0.013129  0.044003
  1C   2s        -0.000002 -0.000016  0.008680 -0.600100 -0.017132  0.057225
  1C   3s         0.000116  0.000471 -0.001337 -0.037402 -0.002666  0.003092
  1C   4s        -0.000648 -0.000762  0.015626  0.006475  0.017684  0.003427
  1C   5s         0.001023  0.003799 -0.011158 -0.022355 -0.026019  0.000479
  1C   1pz       -0.000009 -0.000014 -0.000026  0.000493  0.000197 -0.000199
  1C   1px        0.000008  0.000001  0.000370  0.000483  0.000047  0.000409
  1C   1py        0.000002 -0.000021 -0.000043  0.000447  0.000185 -0.000214
  1C   2pz        0.000271 -0.000701 -0.000780  0.005677 -0.008993  0.004545
  1C   2px       -0.000346  0.000770 -0.007554 -0.004512  0.001453 -0.016539
  1C   2py        0.000151 -0.000653 -0.000334  0.005681 -0.008660  0.005268
  1C   3pz        0.000170 -0.000389  0.003244  0.000029  0.003895 -0.000190
  1C   3px       -0.000467 -0.000890  0.000799  0.003786  0.000765  0.000102
  1C   3py        0.000141 -0.000302  0.003042 -0.000180  0.003673 -0.000188
  1C   1dz2       0.000004 -0.000007 -0.000034  0.000337  0.000001 -0.000167
  1C   1dxz       0.000004 -0.000002  0.000053  0.000151 -0.000117 -0.000046
  1C   1dyz      -0.000007 -0.000015 -0.000220 -0.001142  0.000150  0.000179
  1C   1dx2y2     0.000003  0.000006  0.000046 -0.000666 -0.000001  0.000298
  1C   1dxy      -0.000002  0.000002  0.000056  0.000282 -0.000121 -0.000087
  1C   2dz2      -0.000101  0.000188 -0.001601 -0.001564  0.001560 -0.003179
  1C   2dxz       0.000049 -0.000503  0.002151  0.001451  0.000077  0.001642
  1C   2dyz      -0.000138  0.000082  0.000015 -0.002181  0.003310 -0.003088
  1C   2dx2y2     0.000015 -0.000323  0.002993  0.002664 -0.002382  0.005372
  1C   2dxy       0.000054 -0.000454  0.001727  0.001202  0.000164  0.001133
  1C   1f0        0.000002 -0.000003 -0.000186  0.000236  0.000129 -0.000156
  1C   1f+1      -0.000009  0.000010 -0.000170 -0.000540 -0.000018  0.000393
  1C   1f-1       0.000017  0.000023  0.000255  0.000043 -0.000242  0.000038
  1C   1f+2      -0.000003 -0.000025 -0.000199 -0.000324  0.000169  0.000037
  1C   1f-2      -0.000015  0.000020 -0.000666 -0.000964 -0.000007 -0.000247
  1C   1f+3       0.000008  0.000001 -0.000194 -0.000561 -0.000005  0.000488
  1C   1f-3       0.000003  0.000009 -0.000047  0.000404  0.000010 -0.000245
  2C   1s         0.000002  0.000076  0.467065  0.006374  0.006661 -0.001229
  2C   2s        -0.000007 -0.000025  0.607984  0.008102  0.008463 -0.001662
  2C   3s        -0.000046 -0.000013  0.044031  0.003411  0.003629  0.000345
  2C   4s         0.001025  0.012405 -0.030230 -0.024915 -0.026401  0.003854
  2C   5s        -0.004503 -0.021761 -0.059756  0.090853  0.097143  0.053459
  2C   1pz       -0.000008 -0.000009 -0.000047 -0.000509  0.000443 -0.000038
  2C   1px        0.000030  0.000141  0.000701  0.000210  0.000401  0.000198
  2C   1py       -0.000001 -0.000017 -0.000078 -0.000499  0.000399 -0.000047
  2C   2pz        0.000235 -0.000704 -0.000389  0.013314 -0.010508  0.002163
  2C   2px       -0.000200  0.011381  0.004341 -0.012706 -0.018006 -0.019108
  2C   2py        0.000004 -0.001308 -0.000624  0.013421 -0.009005  0.003132
  2C   3pz       -0.000113  0.000502  0.001887 -0.006833  0.003326 -0.001957
  2C   3px       -0.001418 -0.003843 -0.044075  0.031145  0.035205  0.028846
  2C   3py        0.000219  0.000445  0.004383 -0.008331  0.001177 -0.003522
  2C   1dz2       0.000019 -0.000044 -0.000455 -0.000028 -0.000026 -0.000034
  2C   1dxz       0.000004 -0.000021  0.000010  0.000043  0.000007  0.000010
  2C   1dyz      -0.000012 -0.000019  0.001064  0.000254  0.000277  0.000098
  2C   1dx2y2     0.000007  0.000060  0.000880  0.000075  0.000071  0.000068
  2C   1dxy      -0.000007 -0.000014 -0.000150  0.000021 -0.000017 -0.000003
  2C   2dz2      -0.000151 -0.002153  0.001609  0.005324  0.003681  0.003442
  2C   2dxz       0.000152 -0.000405  0.000409 -0.007869  0.009556  0.000695
  2C   2dyz       0.000258 -0.000453 -0.001411  0.002804 -0.000229  0.003167
  2C   2dx2y2    -0.000077  0.003734 -0.002852 -0.009795 -0.005282 -0.005569
  2C   2dxy      -0.000042 -0.000815  0.000797 -0.006578  0.009760  0.001109
  2C   1f0       -0.000020  0.000014  0.000049 -0.000531  0.000501 -0.000047
  2C   1f+1      -0.000014 -0.000110 -0.000291 -0.000007 -0.000008  0.000194
  2C   1f-1       0.000007  0.000002  0.000051  0.000629 -0.000452  0.000005
  2C   1f+2       0.000023 -0.000000 -0.000101 -0.000336  0.000005  0.000003
  2C   1f-2      -0.000019  0.000087 -0.000179 -0.000577 -0.000766 -0.000173
  2C   1f+3      -0.000008 -0.000143 -0.000345 -0.000053  0.000142  0.000251
  2C   1f-3       0.000013  0.000031  0.000146 -0.000269  0.000327 -0.000092
  3C   1s         0.000000  0.000018  0.006432  0.013812 -0.460410  0.035824
  3C   2s        -0.000001 -0.000014  0.008561  0.017964 -0.599786  0.046579
  3C   3s         0.000067  0.000432 -0.001316 -0.000483 -0.037522  0.002431
  3C   4s        -0.000507 -0.000846  0.015157  0.017345  0.007768  0.005554
  3C   5s         0.000325  0.003965 -0.013290 -0.023540 -0.022823 -0.002189
  3C   1pz        0.000005  0.000016 -0.000024 -0.000166 -0.000557  0.000119
  3C   1px        0.000007  0.000001  0.000376 -0.000048  0.000300  0.000409
  3C   1py       -0.000000  0.000017 -0.000045 -0.000154 -0.000555  0.000091
  3C   2pz       -0.000198  0.000459  0.001509  0.008940 -0.004433 -0.001430
  3C   2px       -0.000345  0.000963 -0.007477  0.005232 -0.006083 -0.016120
  3C   2py       -0.000099  0.000354  0.001874  0.008224 -0.003883 -0.000439
  3C   3pz        0.000060  0.000686 -0.003943 -0.003408 -0.000267 -0.000054
  3C   3px        0.000189 -0.000356 -0.000676 -0.000473  0.004039  0.000423
  3C   3py        0.000010  0.000729 -0.003758 -0.003202 -0.000472 -0.000065
  3C   1dz2      -0.000000 -0.000001 -0.000017 -0.000050  0.000378 -0.000144
  3C   1dxz      -0.000003 -0.000010 -0.000114  0.000154 -0.000229  0.000021
  3C   1dyz      -0.000005 -0.000013 -0.000195  0.000167 -0.001061  0.000157
  3C   1dx2y2    -0.000004  0.000006 -0.000005  0.000120 -0.000770  0.000265
  3C   1dxy      -0.000006 -0.000007 -0.000099  0.000124 -0.000072 -0.000019
  3C   2dz2      -0.000046  0.000019 -0.001137  0.001535 -0.001027 -0.002235
  3C   2dxz      -0.000101  0.000573 -0.002699  0.001511 -0.002400 -0.003074
  3C   2dyz      -0.000067 -0.000139  0.000760  0.003227 -0.001239 -0.001728
  3C   2dx2y2     0.000020  0.000032  0.001726 -0.002182  0.001378  0.003336
  3C   2dxy      -0.000007  0.000514 -0.002820  0.001517 -0.002385 -0.003233
  3C   1f0        0.000006  0.000007  0.000235 -0.000125 -0.000063  0.000019
  3C   1f+1      -0.000011 -0.000003 -0.000150  0.000064 -0.000545  0.000319
  3C   1f-1      -0.000005 -0.000023 -0.000077  0.000212  0.000303 -0.000052
  3C   1f+2      -0.000009  0.000029 -0.000182 -0.000119 -0.000367 -0.000002
  3C   1f-2      -0.000008  0.000003 -0.000685  0.000178 -0.000936 -0.000221
  3C   1f+3       0.000013 -0.000012 -0.000089  0.000048 -0.000622  0.000426
  3C   1f-3      -0.000002 -0.000010  0.000263 -0.000032  0.000201 -0.000073
  4C   1s        -0.000000  0.000009  0.000021  0.001907 -0.075614 -0.138012
  4C   2s         0.000001 -0.000007  0.000030  0.002389 -0.098678 -0.179965
  4C   3s        -0.000003  0.000113  0.001144  0.000885 -0.005822 -0.010645
  4C   4s        -0.000054  0.000249 -0.010158  0.002987 -0.007953 -0.002459
  4C   5s        -0.000336 -0.002059  0.004272  0.016027  0.019458  0.010042
  4C   1pz       -0.000001  0.000014 -0.000005  0.000047  0.000064 -0.000369
  4C   1px        0.000002  0.000018  0.000259  0.000103 -0.000410  0.000298
  4C   1py       -0.000000  0.000014 -0.000020  0.000039  0.000084 -0.000369
  4C   2pz        0.000030  0.000041 -0.000481  0.001378 -0.004217  0.006036
  4C   2px       -0.000133  0.000526 -0.009062 -0.000390  0.003697 -0.013189
  4C   2py        0.000051 -0.000005  0.000069  0.001332 -0.004226  0.006515
  4C   3pz       -0.000160 -0.000299  0.000501  0.004348  0.002099  0.003584
  4C   3px        0.000024 -0.000518 -0.000942  0.004377  0.006978  0.001696
  4C   3py       -0.000163 -0.000251  0.000542  0.003882  0.001586  0.003312
  4C   1dz2      -0.000003 -0.000002  0.000039  0.000012 -0.000135  0.000178
  4C   1dxz       0.000001  0.000013 -0.000016 -0.000037 -0.000059 -0.000099
  4C   1dyz       0.000000  0.000007 -0.000061  0.000074 -0.000166 -0.000062
  4C   1dx2y2    -0.000004  0.000009 -0.000076 -0.000019  0.000210 -0.000322
  4C   1dxy       0.000003  0.000010 -0.000004 -0.000037 -0.000071 -0.000053
  4C   2dz2       0.000041 -0.000100  0.001441  0.000073 -0.001886  0.003174
  4C   2dxz      -0.000013  0.000031 -0.000777 -0.001497  0.000289 -0.002417
  4C   2dyz       0.000022 -0.000107  0.000657  0.000266 -0.002210  0.003465
  4C   2dx2y2    -0.000024  0.000143 -0.002508 -0.000272  0.003074 -0.005415
  4C   2dxy       0.000003  0.000010 -0.000484 -0.001417  0.000041 -0.001874
  4C   1f0       -0.000001 -0.000003  0.000023 -0.000034  0.000184 -0.000415
  4C   1f+1      -0.000001 -0.000002  0.000076  0.000021 -0.000516  0.000131
  4C   1f-1       0.000001  0.000000  0.000044  0.000070 -0.000010  0.000431
  4C   1f+2       0.000003  0.000003 -0.000094 -0.000061 -0.000085 -0.000203
  4C   1f-2      -0.000004  0.000002 -0.000159 -0.000072  0.000235 -0.000479
  4C   1f+3       0.000002 -0.000004  0.000117  0.000029 -0.000637  0.000133
  4C   1f-3      -0.000004 -0.000001  0.000039 -0.000003  0.000323 -0.000277
  5C   1s        -0.000000  0.000008 -0.000161 -0.011828 -0.015261 -0.391749
  5C   2s         0.000000 -0.000005 -0.000116 -0.015449 -0.019924 -0.510568
  5C   3s         0.000018  0.000092 -0.000752 -0.001545 -0.001858 -0.030261
  5C   4s        -0.000222  0.000128 -0.001048  0.005970  0.006343 -0.002506
  5C   5s         0.000305  0.000968 -0.004782 -0.012470 -0.013401 -0.017793
  5C   1pz       -0.000001 -0.000002  0.000005 -0.000202  0.000210 -0.000007
  5C   1px        0.000000  0.000019 -0.000131 -0.000169 -0.000110 -0.000593
  5C   1py       -0.000001 -0.000002  0.000012 -0.000183  0.000207  0.000027
  5C   2pz       -0.000002  0.000024  0.000136  0.005692 -0.005925  0.001232
  5C   2px       -0.000062  0.000148 -0.000594  0.004814  0.002985 -0.004362
  5C   2py        0.000009  0.000007  0.000166  0.005147 -0.005815  0.001422
  5C   3pz       -0.000160 -0.000123  0.000233  0.001032 -0.000755  0.000506
  5C   3px        0.000156  0.000327 -0.001759 -0.003298 -0.003862 -0.003332
  5C   3py       -0.000170 -0.000135  0.000318  0.001174 -0.000496  0.000673
  5C   1dz2       0.000000 -0.000008  0.000010  0.000016  0.000023  0.000167
  5C   1dxz      -0.000002 -0.000000 -0.000003  0.000035 -0.000005 -0.000039
  5C   1dyz      -0.000002 -0.000001 -0.000053  0.000086  0.000091 -0.000956
  5C   1dx2y2    -0.000000  0.000012 -0.000022 -0.000016 -0.000032 -0.000382
  5C   1dxy       0.000002 -0.000003  0.000003  0.000031 -0.000006  0.000059
  5C   2dz2       0.000009  0.000060 -0.000550 -0.000445  0.000080 -0.000113
  5C   2dxz      -0.000001  0.000032 -0.000140  0.002471 -0.002355  0.000408
  5C   2dyz      -0.000022  0.000072 -0.000549 -0.000052  0.000836 -0.000912
  5C   2dx2y2     0.000009 -0.000100  0.000874  0.001043 -0.000326  0.000155
  5C   2dxy      -0.000012  0.000043 -0.000205  0.002246 -0.002259  0.000422
  5C   1f0        0.000000 -0.000000  0.000002 -0.000150  0.000148  0.000005
  5C   1f+1       0.000001 -0.000005 -0.000023 -0.000008 -0.000028 -0.000394
  5C   1f-1       0.000001  0.000001  0.000006  0.000184 -0.000193  0.000126
  5C   1f+2      -0.000003  0.000000 -0.000011 -0.000065  0.000106 -0.000129
  5C   1f-2      -0.000001  0.000008 -0.000035  0.000152  0.000088 -0.000052
  5C   1f+3      -0.000004 -0.000005 -0.000025 -0.000047 -0.000018 -0.000491
  5C   1f-3       0.000003  0.000001  0.000010 -0.000067  0.000069  0.000157
  6H   1s        -0.000002  0.000012 -0.000079 -0.000009  0.000115  0.000236
  6H   2s        -0.000008  0.000146 -0.000689  0.001134  0.001317  0.001638
  6H   3s        -0.000005 -0.000065 -0.000921  0.000845  0.001910  0.001604
  6H   1pz        0.000000 -0.000011  0.000113 -0.000117 -0.000148 -0.000864
  6H   1px       -0.000003  0.000027 -0.000210  0.000617  0.000009 -0.000221
  6H   1py        0.000003 -0.000012  0.000119 -0.000146 -0.000142 -0.000811
  7H   1s        -0.000001  0.000026  0.000058  0.000524  0.000086  0.000011
  7H   2s         0.000137  0.000602 -0.002350  0.000601  0.000131  0.000987
  7H   3s        -0.000168 -0.000119  0.000205  0.002785  0.000845 -0.000084
  7H   1pz       -0.000014 -0.000090  0.000358 -0.000938 -0.000221  0.000132
  7H   1px       -0.000014 -0.000037 -0.000215 -0.001340  0.000049 -0.000432
  7H   1py       -0.000023 -0.000080  0.000353 -0.000818 -0.000214  0.000149
  8H   1s         0.000001  0.000026  0.000064  0.000054  0.000524  0.000041
  8H   2s         0.000052  0.000576 -0.002281  0.000033  0.000534  0.000857
  8H   3s        -0.000069 -0.000011 -0.000038  0.000892  0.003047  0.000144
  8H   1pz        0.000010  0.000082 -0.000311  0.000136  0.001083 -0.000039
  8H   1px       -0.000005 -0.000010 -0.000348  0.000191 -0.000973 -0.000388
  8H   1py        0.000007  0.000081 -0.000278  0.000119  0.001090 -0.000015
  9H   1s        -0.000001  0.000011 -0.000082  0.000117  0.000001  0.000166
  9H   2s        -0.000015  0.000126 -0.000675  0.001224  0.001204  0.001691
  9H   3s        -0.000050 -0.000111 -0.000800  0.001758  0.000881  0.001345
  9H   1pz        0.000003  0.000006 -0.000081  0.000136  0.000047  0.000739
  9H   1px       -0.000004  0.000028 -0.000244  0.000024  0.000644 -0.000065
  9H   1py       -0.000003  0.000006 -0.000063  0.000129  0.000008  0.000709
 10H   1s        -0.000002  0.000013 -0.000075  0.000075  0.000082  0.000406
 10H   2s         0.000016  0.000134 -0.000808  0.000615  0.000650  0.001036
 10H   3s         0.000040 -0.000015 -0.000516  0.000157  0.000177  0.001057
 10H   1pz        0.000002 -0.000001  0.000009  0.000145 -0.000168 -0.000045
 10H   1px        0.000003  0.000022 -0.000117  0.000257  0.000226  0.001586
 10H   1py       -0.000001 -0.000000  0.000015  0.000124 -0.000173 -0.000133
 11C   1s         0.000000  0.000043  0.003644 -0.000047 -0.000049 -0.000117
 11C   2s        -0.000003 -0.000161  0.004636  0.000123  0.000130 -0.000092
 11C   3s         0.000385  0.008242  0.007805 -0.006289 -0.006658 -0.004624
[...]
                 ---------------------------
                 EXCITED STATE GRADIENT DONE
                 ---------------------------


------------------
CARTESIAN GRADIENT
------------------

   1   C   :    0.037769563   -0.007848832   -0.006662052
   2   C   :   -0.039485434   -0.002010013   -0.002991100
   3   C   :   -0.018194713    0.001229028    0.001781683
   4   C   :   -0.037079727    0.011177500    0.007499886
   5   C   :    0.039284429   -0.000905601    0.001755640
   6   C   :    0.010398420   -0.001555707   -0.000657809
   7   H   :    0.000533462    0.000064246   -0.000015538
   8   H   :    0.000181884    0.000065187    0.000157226
   9   H   :   -0.000002989   -0.000059665   -0.000081622
  10   H   :    0.000304484   -0.000417657    0.000026691
  11   H   :   -0.000324948    0.000129486   -0.000100345
  12   C   :    0.049813612   -0.001517808   -0.004198313
  13   C   :   -0.045334496   -0.000420871    0.002819796
  14   C   :    0.010279424    0.005900183   -0.002977966
  15   C   :    0.000433846    0.000755483    0.001354883
  16   H   :   -0.000048397   -0.000430443   -0.000057796
  17   H   :   -0.000124992    0.000086943   -0.000078364
  18   H   :   -0.001085587    0.000870193   -0.000252507
  19   C   :   -0.003262352   -0.004250426    0.000799032
  20   H   :   -0.001000075    0.000069106   -0.000170561
  21   H   :    0.000301245    0.000124230    0.000124676
  22   H   :    0.000865683    0.001265743    0.000294333
  23   O   :   -0.007174755    0.001809661   -0.000298719
  24   H   :    0.003124501   -0.004210531    0.001681519

Difference to translation invariance:
           :    0.0001720880   -0.0000805656   -0.0002473264

Norm of the cartesian gradient     ...    0.1072020531
RMS gradient                       ...    0.0126338831
MAX gradient                       ...    0.0498136124

-------
TIMINGS
-------

Total TD-DFT gradient time         ...      206.574 sec

Fock matrix formation       ....      24.185 sec  ( 11.7%)
  Coulomb formation         ....      23.791 sec  ( 98.4% of F)
  XC integration            ....       0.394 sec  (  1.6% of F)
Z-vector equation           ....     142.104 sec  ( 68.8%)
One electron gradient       ....       1.827 sec  (  0.9%)
Prescreening matrices       ....       2.318 sec  (  1.1%)
Two electron gradient       ....      28.325 sec  ( 13.7%)
XC gradient                 ....       7.095 sec  (  3.4%)

		************************************************************
		*      Energy Gradient Calculation For State    9 *
		************************************************************


           ************************************************************
           *        Program running with 28 parallel MPI-processes    *
           *              working on a common directory               *
           ************************************************************
------------------------------------------------------------------------------
                         ORCA SCF GRADIENT CALCULATION
------------------------------------------------------------------------------


-------------------
TD-DFT GRADIENT
-------------------

Reference wavefunction             ... RHF
State of interest                  ... 9
Basis dimension                    ... 444
DFT-XC contribution needed         ... YES
RI-approximation                   ... OFF
CIS-vectors being read from        ... p1r2.cis

 => Number of Vectors found: 20
 => Orbital Window: 12...42 -> 43...443

Reading the RPA file                     ... done
Norm of the RPA vector                   ... 1.000000000
Making the RPA (pseudo)densities         ... done
Making operators G(D) and Q(T)           ... done
Transforming the Fock operators          ... done
Making the frozen-core relaxed density   ... done
Constructing the G(H) operator           ... done
Transforming the G(H) operator           ... done
Calculating the RPA Lagrangian           ... done
Solving the Z-vector equations           ... done
Finalizing the relaxed density           ... done
Storing the relaxed density              ... done
Constructing the G(Z) operator           ... done
Transforming the G(Z) operator           ... done
Making the W-matrix                      ... done
Finalizing the W-matrix                  ... done
Transforming the W-matrix                ... done
Nuclear repulsion gradient               ... done
One-Electron gradient                    ... done
Prescreening matrices                    ... done
Two-Electron gradient (4-center)         ... <ss|ss>: 6109260 b 5976354 skpd ( 97.8%)    0.144 s ( 0.001 ms/b)
<ss|sp>: 12732285 b 12454721 skpd ( 97.8%)    0.545 s ( 0.002 ms/b)
<ss|sd>: 6193140 b 6065686 skpd ( 97.9%)    0.366 s ( 0.003 ms/b)
<ss|sf>: 2981235 b 2923951 skpd ( 98.1%)    0.225 s ( 0.004 ms/b)
<ss|pp>: 3393645 b 3316759 skpd ( 97.7%)    0.375 s ( 0.005 ms/b)
<ss|pd>: 3232875 b 3162715 skpd ( 97.8%)    0.452 s ( 0.006 ms/b)
<ss|pf>: 1534305 b 1501075 skpd ( 97.8%)    0.319 s ( 0.010 ms/b)
<ss|dd>:  835305 b  817308 skpd ( 97.8%)    0.161 s ( 0.009 ms/b)
<ss|df>:  747930 b  733556 skpd ( 98.1%)    0.199 s ( 0.014 ms/b)
<ss|ff>:  202710 b  198089 skpd ( 97.7%)    0.103 s ( 0.022 ms/b)
<sp|sp>: 6637546 b 6486641 skpd ( 97.7%)    0.647 s ( 0.004 ms/b)
<sp|sd>: 6455396 b 6318066 skpd ( 97.9%)    0.940 s ( 0.007 ms/b)
<sp|sf>: 3107479 b 3044985 skpd ( 98.0%)    0.630 s ( 0.010 ms/b)
<sp|pp>: 3537353 b 3455480 skpd ( 97.7%)    1.048 s ( 0.013 ms/b)
<sp|pd>: 3369775 b 3294705 skpd ( 97.8%)    1.281 s ( 0.017 ms/b)
<sp|pf>: 1599277 b 1563164 skpd ( 97.7%)    0.945 s ( 0.026 ms/b)
<sp|dd>:  870677 b  851220 skpd ( 97.8%)    0.480 s ( 0.025 ms/b)
<sp|df>:  779602 b  763852 skpd ( 98.0%)    0.616 s ( 0.039 ms/b)
<sp|ff>:  211294 b  206215 skpd ( 97.6%)    0.329 s ( 0.065 ms/b)
<sd|sd>: 1570878 b 1539719 skpd ( 98.0%)    0.363 s ( 0.012 ms/b)
<sd|sf>: 1511516 b 1484220 skpd ( 98.2%)    0.485 s ( 0.018 ms/b)
<sd|pp>: 1720612 b 1682848 skpd ( 97.8%)    0.916 s ( 0.024 ms/b)
<sd|pd>: 1639100 b 1604743 skpd ( 97.9%)    1.043 s ( 0.030 ms/b)
<sd|pf>:  777908 b  761921 skpd ( 97.9%)    0.758 s ( 0.047 ms/b)
<sd|dd>:  423508 b  414662 skpd ( 97.9%)    0.410 s ( 0.046 ms/b)
<sd|df>:  379208 b  372107 skpd ( 98.1%)    0.515 s ( 0.073 ms/b)
<sd|ff>:  102776 b  100494 skpd ( 97.8%)    0.270 s ( 0.118 ms/b)
<sf|sf>:  364231 b  358457 skpd ( 98.4%)    0.166 s ( 0.029 ms/b)
<sf|pp>:  828263 b  810822 skpd ( 97.9%)    0.738 s ( 0.042 ms/b)
<sf|pd>:  789025 b  773422 skpd ( 98.0%)    0.806 s ( 0.052 ms/b)
<sf|pf>:  374467 b  367552 skpd ( 98.2%)    0.593 s ( 0.086 ms/b)
<sf|dd>:  203867 b  199910 skpd ( 98.1%)    0.302 s ( 0.076 ms/b)
<sf|df>:  182542 b  179417 skpd ( 98.3%)    0.386 s ( 0.124 ms/b)
<sf|ff>:   49474 b   48486 skpd ( 98.0%)    0.224 s ( 0.227 ms/b)
<pp|pp>:  471906 b  460360 skpd ( 97.6%)    0.489 s ( 0.042 ms/b)
<pp|pd>:  898175 b  877444 skpd ( 97.7%)    1.054 s ( 0.051 ms/b)
<pp|pf>:  426269 b  416119 skpd ( 97.6%)    0.828 s ( 0.082 ms/b)
<pp|dd>:  232069 b  226665 skpd ( 97.7%)    0.417 s ( 0.077 ms/b)
<pp|df>:  207794 b  203330 skpd ( 97.9%)    0.555 s ( 0.124 ms/b)
<pp|ff>:   56318 b   54867 skpd ( 97.4%)    0.319 s ( 0.220 ms/b)
<pd|pd>:  428275 b  418692 skpd ( 97.8%)    0.833 s ( 0.087 ms/b)
<pd|pf>:  406075 b  397121 skpd ( 97.8%)    1.175 s ( 0.131 ms/b)
<pd|dd>:  221075 b  216193 skpd ( 97.8%)    0.651 s ( 0.133 ms/b)
<pd|df>:  197950 b  194009 skpd ( 98.0%)    0.850 s ( 0.216 ms/b)
<pd|ff>:   53650 b   52377 skpd ( 97.6%)    0.481 s ( 0.378 ms/b)
<pf|pf>:   96580 b   94524 skpd ( 97.9%)    0.509 s ( 0.247 ms/b)
<pf|dd>:  104921 b  102691 skpd ( 97.9%)    0.464 s ( 0.208 ms/b)
<pf|df>:   93946 b   92122 skpd ( 98.1%)    0.553 s ( 0.303 ms/b)
<pf|ff>:   25462 b   24873 skpd ( 97.7%)    0.317 s ( 0.539 ms/b)
<dd|dd>:   28680 b   27993 skpd ( 97.6%)    0.144 s ( 0.210 ms/b)
<dd|df>:   51146 b   50137 skpd ( 98.0%)    0.344 s ( 0.341 ms/b)
<dd|ff>:   13862 b   13541 skpd ( 97.7%)    0.193 s ( 0.601 ms/b)
<df|df>:   23005 b   22542 skpd ( 98.0%)    0.265 s ( 0.573 ms/b)
<df|ff>:   12412 b   12151 skpd ( 97.9%)    0.260 s ( 0.995 ms/b)
<ff|ff>:    1711 b    1669 skpd ( 97.5%)    0.082 s ( 1.949 ms/b)
done
Exchange-Correlation gradient            ... done
                 ---------------------------
                 EXCITED STATE GRADIENT DONE
                 ---------------------------


------------------
CARTESIAN GRADIENT
------------------

   1   C   :   -0.013690440   -0.004664900   -0.005933446
   2   C   :    0.013399809   -0.012677325   -0.012350189
   3   C   :   -0.033493010    0.001938898    0.002645233
   4   C   :    0.017679355    0.008995302    0.010988079
   5   C   :   -0.010280131    0.008818659    0.007451773
   6   C   :    0.003287886   -0.000961506   -0.000220837
   7   H   :   -0.000020891   -0.000379714   -0.000696350
   8   H   :   -0.002824510   -0.000707180   -0.001468530
   9   H   :   -0.001911449    0.001065729    0.000677845
  10   H   :   -0.000482803    0.000247117   -0.000086739
  11   H   :    0.001234600   -0.000560625    0.000200742
  12   C   :    0.067203600    0.000472143    0.003377707
  13   C   :   -0.049213124    0.001548605   -0.002116218
  14   C   :   -0.018375609   -0.002328460    0.004813166
  15   C   :    0.005346723    0.002759380    0.001362630
  16   H   :    0.001690814    0.000170844   -0.005700803
  17   H   :    0.001556378    0.000843503    0.002173514
  18   H   :    0.000482003   -0.002830901   -0.000001138
  19   C   :    0.000287615   -0.000636312    0.001768204
  20   H   :   -0.001888808    0.001491818    0.001502188
  21   H   :    0.002651991   -0.003605742    0.003027356
  22   H   :    0.003984138    0.002494951   -0.006091130
  23   O   :    0.003761458    0.026569223   -0.013853789
  24   H   :    0.009601259   -0.028106718    0.008183337

Difference to translation invariance:
           :   -0.0000131474   -0.0000432099   -0.0003473940

Norm of the cartesian gradient     ...    0.1096684337
RMS gradient                       ...    0.0129245489
MAX gradient                       ...    0.0672035999

-------
TIMINGS
-------

Total TD-DFT gradient time         ...      211.690 sec

Fock matrix formation       ....      24.475 sec  ( 11.6%)
  Coulomb formation         ....      24.064 sec  ( 98.3% of F)
  XC integration            ....       0.411 sec  (  1.7% of F)
Z-vector equation           ....     145.374 sec  ( 68.7%)
One electron gradient       ....       1.852 sec  (  0.9%)
Prescreening matrices       ....       2.303 sec  (  1.1%)
Two electron gradient       ....      29.321 sec  ( 13.9%)
XC gradient                 ....       7.658 sec  (  3.6%)

		************************************************************
		*      Energy Gradient Calculation For State   10 *
		************************************************************


           ************************************************************
           *        Program running with 28 parallel MPI-processes    *
           *              working on a common directory               *
           ************************************************************
------------------------------------------------------------------------------
                         ORCA SCF GRADIENT CALCULATION
------------------------------------------------------------------------------


-------------------
TD-DFT GRADIENT
-------------------

Reference wavefunction             ... RHF
State of interest                  ... 10
Basis dimension                    ... 444
DFT-XC contribution needed         ... YES
RI-approximation                   ... OFF
CIS-vectors being read from        ... p1r2.cis

 => Number of Vectors found: 20
 => Orbital Window: 12...42 -> 43...443

Reading the RPA file                     ... done
Norm of the RPA vector                   ... 1.000000000
Making the RPA (pseudo)densities         ... done
Making operators G(D) and Q(T)           ... done
Transforming the Fock operators          ... done
Making the frozen-core relaxed density   ... done
Constructing the G(H) operator           ... done
Transforming the G(H) operator           ... done
Calculating the RPA Lagrangian           ... done
Solving the Z-vector equations           ... done
Finalizing the relaxed density           ... done
Storing the relaxed density              ... done
Constructing the G(Z) operator           ... done
Transforming the G(Z) operator           ... done
Making the W-matrix                      ... done
Finalizing the W-matrix                  ... done
Transforming the W-matrix                ... done
Nuclear repulsion gradient               ... done
One-Electron gradient                    ... done
Prescreening matrices                    ... done
Two-Electron gradient (4-center)         ... <ss|ss>: 6109260 b 5983489 skpd ( 97.9%)    0.138 s ( 0.001 ms/b)
<ss|sp>: 12732285 b 12467185 skpd ( 97.9%)    0.524 s ( 0.002 ms/b)
<ss|sd>: 6193140 b 6071530 skpd ( 98.0%)    0.349 s ( 0.003 ms/b)
<ss|sf>: 2981235 b 2927665 skpd ( 98.2%)    0.213 s ( 0.004 ms/b)
<ss|pp>: 3393645 b 3319177 skpd ( 97.8%)    0.366 s ( 0.005 ms/b)
<ss|pd>: 3232875 b 3165851 skpd ( 97.9%)    0.433 s ( 0.006 ms/b)
<ss|pf>: 1534305 b 1502688 skpd ( 97.9%)    0.306 s ( 0.010 ms/b)
<ss|dd>:  835305 b  818209 skpd ( 98.0%)    0.152 s ( 0.009 ms/b)
<ss|df>:  747930 b  734084 skpd ( 98.1%)    0.192 s ( 0.014 ms/b)
<ss|ff>:  202710 b  198282 skpd ( 97.8%)    0.099 s ( 0.022 ms/b)
<sp|sp>: 6637546 b 6492465 skpd ( 97.8%)    0.621 s ( 0.004 ms/b)
<sp|sd>: 6455396 b 6323420 skpd ( 98.0%)    0.899 s ( 0.007 ms/b)
<sp|sf>: 3107479 b 3048817 skpd ( 98.1%)    0.595 s ( 0.010 ms/b)
<sp|pp>: 3537353 b 3457684 skpd ( 97.7%)    1.026 s ( 0.013 ms/b)
<sp|pd>: 3369775 b 3297571 skpd ( 97.9%)    1.232 s ( 0.017 ms/b)
<sp|pf>: 1599277 b 1564725 skpd ( 97.8%)    0.905 s ( 0.026 ms/b)
<sp|dd>:  870677 b  852051 skpd ( 97.9%)    0.459 s ( 0.025 ms/b)
<sp|df>:  779602 b  764352 skpd ( 98.0%)    0.594 s ( 0.039 ms/b)
<sp|ff>:  211294 b  206388 skpd ( 97.7%)    0.318 s ( 0.065 ms/b)
<sd|sd>: 1570878 b 1541294 skpd ( 98.1%)    0.344 s ( 0.012 ms/b)
<sd|sf>: 1511516 b 1485629 skpd ( 98.3%)    0.459 s ( 0.018 ms/b)
<sd|pp>: 1720612 b 1683876 skpd ( 97.9%)    0.890 s ( 0.024 ms/b)
<sd|pd>: 1639100 b 1606264 skpd ( 98.0%)    0.996 s ( 0.030 ms/b)
<sd|pf>:  777908 b  762534 skpd ( 98.0%)    0.732 s ( 0.048 ms/b)
<sd|dd>:  423508 b  415042 skpd ( 98.0%)    0.390 s ( 0.046 ms/b)
<sd|df>:  379208 b  372267 skpd ( 98.2%)    0.504 s ( 0.073 ms/b)
<sd|ff>:  102776 b  100544 skpd ( 97.8%)    0.264 s ( 0.118 ms/b)
<sf|sf>:  364231 b  358793 skpd ( 98.5%)    0.157 s ( 0.029 ms/b)
<sf|pp>:  828263 b  811553 skpd ( 98.0%)    0.714 s ( 0.043 ms/b)
<sf|pd>:  789025 b  774386 skpd ( 98.1%)    0.762 s ( 0.052 ms/b)
<sf|pf>:  374467 b  367858 skpd ( 98.2%)    0.569 s ( 0.086 ms/b)
<sf|dd>:  203867 b  200158 skpd ( 98.2%)    0.281 s ( 0.076 ms/b)
<sf|df>:  182542 b  179553 skpd ( 98.4%)    0.370 s ( 0.124 ms/b)
<sf|ff>:   49474 b   48521 skpd ( 98.1%)    0.217 s ( 0.228 ms/b)
<pp|pp>:  471906 b  460637 skpd ( 97.6%)    0.480 s ( 0.043 ms/b)
<pp|pd>:  898175 b  878123 skpd ( 97.8%)    1.019 s ( 0.051 ms/b)
<pp|pf>:  426269 b  416495 skpd ( 97.7%)    0.808 s ( 0.083 ms/b)
<pp|dd>:  232069 b  226844 skpd ( 97.7%)    0.406 s ( 0.078 ms/b)
<pp|df>:  207794 b  203451 skpd ( 97.9%)    0.538 s ( 0.124 ms/b)
<pp|ff>:   56318 b   54914 skpd ( 97.5%)    0.310 s ( 0.221 ms/b)
<pd|pd>:  428275 b  419059 skpd ( 97.8%)    0.801 s ( 0.087 ms/b)
<pd|pf>:  406075 b  397433 skpd ( 97.9%)    1.138 s ( 0.132 ms/b)
<pd|dd>:  221075 b  216339 skpd ( 97.9%)    0.631 s ( 0.133 ms/b)
<pd|df>:  197950 b  194081 skpd ( 98.0%)    0.830 s ( 0.215 ms/b)
<pd|ff>:   53650 b   52401 skpd ( 97.7%)    0.464 s ( 0.372 ms/b)
<pf|pf>:   96580 b   94622 skpd ( 98.0%)    0.478 s ( 0.244 ms/b)
<pf|dd>:  104921 b  102803 skpd ( 98.0%)    0.482 s ( 0.228 ms/b)
<pf|df>:   93946 b   92174 skpd ( 98.1%)    0.672 s ( 0.379 ms/b)
<pf|ff>:   25462 b   24893 skpd ( 97.8%)    0.381 s ( 0.669 ms/b)
<dd|dd>:   28680 b   28020 skpd ( 97.7%)    0.168 s ( 0.255 ms/b)
<dd|df>:   51146 b   50144 skpd ( 98.0%)    0.341 s ( 0.341 ms/b)
<dd|ff>:   13862 b   13545 skpd ( 97.7%)    0.190 s ( 0.599 ms/b)
<df|df>:   23005 b   22543 skpd ( 98.0%)    0.263 s ( 0.568 ms/b)
<df|ff>:   12412 b   12151 skpd ( 97.9%)    0.259 s ( 0.994 ms/b)
<ff|ff>:    1711 b    1669 skpd ( 97.5%)    0.083 s ( 1.966 ms/b)
done
Exchange-Correlation gradient            ... done
                 ---------------------------
                 EXCITED STATE GRADIENT DONE
                 ---------------------------


------------------
CARTESIAN GRADIENT
------------------

   1   C   :   -0.005060443   -0.012811229   -0.013519338
   2   C   :   -0.002343329   -0.012996290   -0.015296590
   3   C   :   -0.021762305    0.002808427    0.001101091
   4   C   :    0.002450031    0.014634721    0.014036157
   5   C   :    0.000256241    0.012855185    0.014128173
   6   C   :    0.023988096   -0.002461922   -0.001547358
   7   H   :    0.000582352   -0.001659951   -0.000667397
   8   H   :   -0.000584725   -0.000607431   -0.001413330
   9   H   :   -0.000144007    0.001500006    0.000716329
  10   H   :    0.000856550    0.000607296    0.001168040
  11   H   :    0.002165880    0.000033728   -0.000361134
  12   C   :    0.054525991   -0.010505752   -0.001125744
  13   C   :   -0.059846456    0.008833753    0.002279706
  14   C   :    0.010408350   -0.001691784   -0.003478665
  15   C   :    0.001090479    0.001973361   -0.000122226
  16   H   :   -0.000307440   -0.000149735    0.000243086
  17   H   :   -0.000026202    0.000067419    0.000042869
  18   H   :   -0.001906693    0.000353274    0.000200781
  19   C   :    0.000262229   -0.000877881   -0.000891776
  20   H   :   -0.000607405    0.000054007    0.000120066
  21   H   :   -0.000065532   -0.000130996    0.000048455
  22   H   :   -0.000193695    0.000156977   -0.000186503
  23   O   :   -0.004309114    0.001521175    0.003835490
  24   H   :    0.000680731   -0.001567927    0.000459483

Difference to translation invariance:
           :    0.0001095841   -0.0000615704   -0.0002303327

Norm of the cartesian gradient     ...    0.0978197806
RMS gradient                       ...    0.0115281717
MAX gradient                       ...    0.0598464562

-------
TIMINGS
-------

Total TD-DFT gradient time         ...      205.215 sec

Fock matrix formation       ....      24.067 sec  ( 11.7%)
  Coulomb formation         ....      23.664 sec  ( 98.3% of F)
  XC integration            ....       0.403 sec  (  1.7% of F)
Z-vector equation           ....     141.179 sec  ( 68.8%)
One electron gradient       ....       1.853 sec  (  0.9%)
Prescreening matrices       ....       2.319 sec  (  1.1%)
Two electron gradient       ....      27.869 sec  ( 13.6%)
XC gradient                 ....       7.281 sec  (  3.5%)

Mass weighting the hessian        ... done
Symmetrizing the hessian          ... done
Calculating normal modes          ... done


-----------------------------------------------
ENTERING SURFACE PARAMETERS CALCULATION
-----------------------------------------------

Mass weighting the cartesian gradient                                ... done
Calculating energy gradient along normal modes at the input geometry ... done


Surface parameters are stored in the file :     p1r2.rrhess
Prepared input file for orca_asa run      :    p1r2.asa.inp

Timings for individual modules:

Sum of individual times         ...     9792.151 sec (= 163.203 min)
GTO integral calculation        ...        1.185 sec (=   0.020 min)   0.0 %
SCF iterations                  ...       80.240 sec (=   1.337 min)   0.8 %
CIS module                      ...     7559.956 sec (= 125.999 min)  77.2 %
SCF Gradient evaluation         ...     2150.771 sec (=  35.846 min)  22.0 %
                             ****ORCA TERMINATED NORMALLY****
TOTAL RUN TIME: 0 days 2 hours 43 minutes 13 seconds 201 msec
