
                                 *****************
                                 * O   R   C   A *
                                 *****************

           --- An Ab Initio, DFT and Semiempirical electronic structure package ---

                  #######################################################
                  #                        -***-                        #
                  #          Department of theory and spectroscopy      #
                  #               Directorship: Frank Neese             #
                  #        Max Planck Institute fuer Kohlenforschung    #
                  #                Kaiser Wilhelm Platz 1               #
                  #                 D-45470 Muelheim/Ruhr               #
                  #                      Germany                        #
                  #                                                     #
                  #                  All rights reserved                #
                  #                        -***-                        #
                  #######################################################


                         Program Version 4.2.1 -  RELEASE  -


 With contributions from (in alphabetic order):
   Daniel Aravena         : Magnetic Suceptibility
   Michael Atanasov       : Ab Initio Ligand Field Theory (pilot matlab implementation)
   Alexander A. Auer      : GIAO ZORA, VPT2
   Ute Becker             : Parallelization
   Giovanni Bistoni       : ED, misc. LED, open-shell LED, HFLD
   Martin Brehm           : Molecular dynamics
   Dmytro Bykov           : SCF Hessian
   Vijay G. Chilkuri      : MRCI spin determinant printing, contributions to CSF-ICE
   Dipayan Datta          : RHF DLPNO-CCSD density
   Achintya Kumar Dutta   : EOM-CC, STEOM-CC
   Dmitry Ganyushin       : Spin-Orbit,Spin-Spin,Magnetic field MRCI
   Miquel Garcia          : C-PCM Hessian, Gaussian charge scheme
   Yang Guo               : DLPNO-NEVPT2, CIM, IAO-localization
   Andreas Hansen         : Spin unrestricted coupled pair/coupled cluster methods
   Benjamin Helmich-Paris : CASSCF linear response (MC-RPA)
   Lee Huntington         : MR-EOM, pCC
   Robert Izsak           : Overlap fitted RIJCOSX, COSX-SCS-MP3, EOM
   Christian Kollmar      : KDIIS, OOCD, Brueckner-CCSD(T), CCSD density
   Simone Kossmann        : Meta GGA functionals, TD-DFT gradient, OOMP2, MP2 Hessian
   Martin Krupicka        : AUTO-CI
   Lucas Lang             : DCDCAS
   Dagmar Lenk            : GEPOL surface, SMD
   Dimitrios Liakos       : Extrapolation schemes; Compound Job, initial MDCI parallelization
   Dimitrios Manganas     : Further ROCIS development; embedding schemes
   Dimitrios Pantazis     : SARC Basis sets
   Taras Petrenko         : DFT Hessian,TD-DFT gradient, ASA, ECA, R-Raman, ABS, FL, XAS/XES, NRVS
   Peter Pinski           : DLPNO-MP2, DLPNO-MP2 Gradient
   Christoph Reimann      : Effective Core Potentials
   Marius Retegan         : Local ZFS, SOC
   Christoph Riplinger    : Optimizer, TS searches, QM/MM, DLPNO-CCSD(T), (RO)-DLPNO pert. Triples
   Tobias Risthaus        : Range-separated hybrids, TD-DFT gradient, RPA, STAB
   Michael Roemelt        : Original ROCIS implementation
   Masaaki Saitow         : Open-shell DLPNO-CCSD energy and density
   Barbara Sandhoefer     : DKH picture change effects
   Avijit Sen             : IP-ROCIS
   Kantharuban Sivalingam : CASSCF convergence, NEVPT2, FIC-MRCI
   Bernardo de Souza      : ESD, SOC TD-DFT
   Georgi Stoychev        : AutoAux, RI-MP2 NMR
   Willem Van den Heuvel  : Paramagnetic NMR
   Boris Wezisla          : Elementary symmetry handling
   Frank Wennmohs         : Technical directorship


 We gratefully acknowledge several colleagues who have allowed us to
 interface, adapt or use parts of their codes:
   Stefan Grimme, W. Hujo, H. Kruse,             : VdW corrections, initial TS optimization,
                  C. Bannwarth                     DFT functionals, gCP, sTDA/sTD-DF
   Ed Valeev, F. Pavosevic, A. Kumar             : LibInt (2-el integral package), F12 methods
   Garnet Chan, S. Sharma, J. Yang, R. Olivares  : DMRG
   Ulf Ekstrom                                   : XCFun DFT Library
   Mihaly Kallay                                 : mrcc  (arbitrary order and MRCC methods)
   Andreas Klamt, Michael Diedenhofen            : otool_cosmo (COSMO solvation model)
   Jiri Pittner, Ondrej Demel                    : Mk-CCSD
   Frank Weinhold                                : gennbo (NPA and NBO analysis)
   Christopher J. Cramer and Donald G. Truhlar   : smd solvation model
   Lars Goerigk                                  : TD-DFT with DH, B97 family of functionals
   V. Asgeirsson, H. Jonsson                     : NEB implementation
   FAccTs GmbH                                   : IRC, NEB, NEB-TS, Multilevel, MM, QM/MM, CI optimization
   S Lehtola, MJT Oliveira, MAL Marques          : LibXC Library


 Your calculation uses the libint2 library for the computation of 2-el integrals
 For citations please refer to: http://libint.valeyev.net

 Your ORCA version has been built with support for libXC version: 4.2.3
 For citations please refer to: https://tddft.org/programs/libxc/

 This ORCA versions uses:
   CBLAS   interface :  Fast vector & matrix operations
   LAPACKE interface :  Fast linear algebra routines
   SCALAPACK package :  Parallel linear algebra routines




***************************************
The coordinates will be read from file: p2r1.xyz
***************************************


----- Orbital basis set information -----
Your calculation utilizes the basis: def2-TZVP
   F. Weigend and R. Ahlrichs, Phys. Chem. Chem. Phys. 7, 3297 (2005).

----- AuxJ basis set information -----
Your calculation utilizes the auxiliary basis: def2/J
   F. Weigend, Phys. Chem. Chem. Phys. 8, 1057 (2006).

================================================================================
                                        WARNINGS
                       Please study these warnings very carefully!
================================================================================

INFO   : Checking CIS options ...

INFO   : Since TDDFT/CIS Mode == RPA_AOINTS, the TAMMDANCOFF/TDA keyword is ignored. 


WARNING: CIS/ROCIS methods need fully converged wavefunctions
  ===> : Setting SCFConvForced true
         You can overwrite this default with %scf ConvForced false 


INFO   : the flag for use of LIBINT has been found!

================================================================================
                                       INPUT FILE
================================================================================
NAME = p2r1.inp
|  1> #
|  2> # P2R1 PBE0 with tight SCF convergence criteria
|  3> #
|  4> ! PBE0 def2-TZVP def2/J TightSCF NMGrad Normalprint Printbasis PrintMOs
|  5> #
|  6> %maxcore 3072
|  7> #
|  8> %pal
|  9>   nprocs 28
| 10> end
| 11> #
| 12> %tddft
| 13>   nroots 10   
| 14>   maxdim 10
| 15>   tda false
| 16> end
| 17> #
| 18> %rr 
| 19>   states 1,2,3,4,5,6,7,8,9,10
| 20>   HessName "p2r1.hess"
| 21>   ASAInput true
| 22> end
| 23> #
| 24> * xyzfile 0 1 p2r1.xyz
| 25> 
| 26>                          ****END OF INPUT****
================================================================================

                     *******************************
                     * Energy+Gradient Calculation *
                     *******************************

Will try to read the hessian file
 ...good, the file p2r1.hess exists

Cartesian cordinates from the hessian file will be used
Atomic masses from the hessian file will be used

There are 11 states to be processed:
 0, 1, 2, 3, 4, 5, 6, 7, 8, 9, 10

         *************************************************************
         *                 Single Point Calculation                  *
         *************************************************************
---------------------------------
CARTESIAN COORDINATES (ANGSTROEM)
---------------------------------
  C     -2.165007   -3.698989   -0.217071
  C     -1.018380   -3.529731   -0.981196
  C     -0.289742   -2.356985   -0.895266
  C     -0.702961   -1.332032   -0.036419
  C     -1.860317   -1.511293    0.730715
  C     -2.582403   -2.687365    0.637311
  H     -2.733287   -4.619255   -0.287355
  H     -0.689517   -4.317429   -1.649183
  H      0.605667   -2.219268   -1.489123
  H     -2.180464   -0.718411    1.395631
  H     -3.477143   -2.816100    1.235387
  C      0.035890   -0.126726    0.059683
  C      0.657989    0.909289    0.153504
  C      1.351442    2.073121    0.260544
  C      1.963039    3.111752    0.368105
  C      2.696371    4.365075    0.449181
  H      2.807172    4.660202    1.496373
  H      3.709597    4.209803    0.051338
  O      2.050896    5.441854   -0.195779
  H      1.821158    5.162488   -1.086379

----------------------------
CARTESIAN COORDINATES (A.U.)
----------------------------
  NO LB      ZA    FRAG     MASS         X           Y           Z
   0 C     6.0000    0    12.011   -4.091271   -6.990076   -0.410206
   1 C     6.0000    0    12.011   -1.924459   -6.670225   -1.854192
   2 C     6.0000    0    12.011   -0.547533   -4.454056   -1.691808
   3 C     6.0000    0    12.011   -1.328403   -2.517176   -0.068822
   4 C     6.0000    0    12.011   -3.515489   -2.855929    1.380851
   5 C     6.0000    0    12.011   -4.880034   -5.078383    1.204344
   6 H     1.0000    0     1.008   -5.165164   -8.729127   -0.543022
   7 H     1.0000    0     1.008   -1.302999   -8.158758   -3.116504
   8 H     1.0000    0     1.008    1.144544   -4.193808   -2.814035
   9 H     1.0000    0     1.008   -4.120480   -1.357599    2.637361
  10 H     1.0000    0     1.008   -6.570848   -5.321657    2.334543
  11 C     6.0000    0    12.011    0.067822   -0.239478    0.112785
  12 C     6.0000    0    12.011    1.243419    1.718307    0.290081
  13 C     6.0000    0    12.011    2.553855    3.917630    0.492357
  14 C     6.0000    0    12.011    3.709607    5.880359    0.695618
  15 C     6.0000    0    12.011    5.095403    8.248796    0.848829
  16 H     1.0000    0     1.008    5.304786    8.806506    2.827735
  17 H     1.0000    0     1.008    7.010122    7.955375    0.097014
  18 O     8.0000    0    15.999    3.875632   10.283613   -0.369969
  19 H     1.0000    0     1.008    3.441491    9.755688   -2.052959

--------------------------------
INTERNAL COORDINATES (ANGSTROEM)
--------------------------------
 C      0   0   0     0.000000000000     0.00000000     0.00000000
 C      1   0   0     1.388268653478     0.00000000     0.00000000
 C      2   1   0     1.383340005374   120.27902219     0.00000000
 C      3   2   1     1.399606372135   120.22776214     0.02908814
 C      4   3   2     1.400036228016   119.11285642     0.00000000
 C      5   4   3     1.383212622932   120.22597791     0.00000000
 H      1   2   3     1.083868839677   120.05771389   179.98868485
 H      2   1   3     1.083892950067   120.07988360   180.00736660
 H      3   2   1     1.083230433406   120.60531168   180.00545258
 H      5   4   3     1.083176248180   119.14112103   179.99265012
 H      6   5   4     1.083894793076   119.64716289   180.01261709
 C      4   3   2     1.417003045552   120.70266954   179.98925471
 C     12   4   3     1.212079478135   179.24048129   184.02932727
 C     13  12   4     1.358984627965   179.78986197   335.40056094
 C     14  13  12     1.210113947550   179.34747016    41.28181599
 C     15  14  13     1.454361840543   178.08961243   211.69491319
 H     16  15  14     1.093612375926   109.69588793   172.25921257
 H     16  15  14     1.099551702974   108.83100631   288.93103456
 O     16  15  14     1.411404910698   113.66457143    53.62084175
 H     19  16  15     0.961245613898   108.11686021   308.96626922

---------------------------
INTERNAL COORDINATES (A.U.)
---------------------------
 C      0   0   0     0.000000000000     0.00000000     0.00000000
 C      1   0   0     2.623447555381     0.00000000     0.00000000
 C      2   1   0     2.614133760254   120.27902219     0.00000000
 C      3   2   1     2.644872738626   120.22776214     0.02908814
 C      4   3   2     2.645685048518   119.11285642     0.00000000
 C      5   4   3     2.613893042324   120.22597791     0.00000000
 H      1   2   3     2.048215272081   120.05771389   179.98868485
 H      2   1   3     2.048260834115   120.07988360   180.00736660
 H      3   2   1     2.047008859066   120.60531168   180.00545258
 H      5   4   3     2.046906463829   119.14112103   179.99265012
 H      6   5   4     2.048264316897   119.64716289   180.01261709
 C      4   3   2     2.677747687026   120.70266954   179.98925471
 C     12   4   3     2.290498266221   179.24048129   184.02932727
 C     13  12   4     2.568108767062   179.78986197   335.40056094
 C     14  13  12     2.286783951709   179.34747016    41.28181599
 C     15  14  13     2.748345578251   178.08961243   211.69491319
 H     16  15  14     2.066627887168   109.69588793   172.25921257
 H     16  15  14     2.077851588708   108.83100631   288.93103456
 O     16  15  14     2.667168745290   113.66457143    53.62084175
 H     19  16  15     1.816490957700   108.11686021   308.96626922

---------------------
BASIS SET INFORMATION
---------------------
There are 3 groups of distinct atoms

 Group   1 Type C   : 11s6p2d1f contracted to 5s3p2d1f pattern {62111/411/11/1}
 Group   2 Type H   : 5s1p contracted to 3s1p pattern {311/1}
 Group   3 Type O   : 11s6p2d1f contracted to 5s3p2d1f pattern {62111/411/11/1}

Atom   0C    basis set group =>   1
Atom   1C    basis set group =>   1
Atom   2C    basis set group =>   1
Atom   3C    basis set group =>   1
Atom   4C    basis set group =>   1
Atom   5C    basis set group =>   1
Atom   6H    basis set group =>   2
Atom   7H    basis set group =>   2
Atom   8H    basis set group =>   2
Atom   9H    basis set group =>   2
Atom  10H    basis set group =>   2
Atom  11C    basis set group =>   1
Atom  12C    basis set group =>   1
Atom  13C    basis set group =>   1
Atom  14C    basis set group =>   1
Atom  15C    basis set group =>   1
Atom  16H    basis set group =>   2
Atom  17H    basis set group =>   2
Atom  18O    basis set group =>   3
Atom  19H    basis set group =>   2

-------------------------
BASIS SET IN INPUT FORMAT
-------------------------

 # Basis set for element : H 
 NewGTO H 
 S 3 
   1      34.0613410000      0.0254393072
   2       5.1235746000      0.1900859489
   3       1.1646626000      0.8524411301
 S 1 
   1       0.3272304100      1.0000000000
 S 1 
   1       0.1030724100      1.0000000000
 P 1 
   1       0.8000000000      1.0000000000
  end;

 # Basis set for element : C 
 NewGTO C 
 S 6 
   1   13575.3496820000      0.0006064549
   2    2035.2333680000      0.0046979088
   3     463.2256235900      0.0243324776
   4     131.2001959800      0.0973999683
   5      42.8530158910      0.3019558425
   6      15.5841857660      0.6623360915
 S 2 
   1       6.2067138508      0.6559530854
   2       2.5764896527      0.3758563329
 S 1 
   1       0.5769633942      1.0000000000
 S 1 
   1       0.2297283136      1.0000000000
 S 1 
   1       0.0951644400      1.0000000000
 P 4 
   1      34.6972322440      0.0113272200
   2       7.9582622826      0.0761696592
   3       2.3780826883      0.3019225220
   4       0.8143320818      0.7278502735
 P 1 
   1       0.2888754725      1.0000000000
 P 1 
   1       0.1005682367      1.0000000000
 D 1 
   1       1.0970000000      1.0000000000
 D 1 
   1       0.3180000000      1.0000000000
 F 1 
   1       0.7610000000      1.0000000000
  end;

 # Basis set for element : O 
 NewGTO O 
 S 6 
   1   27032.3826310000      0.0005722733
   2    4052.3871392000      0.0044353233
   3     922.3272271000      0.0230201076
   4     261.2407098900      0.0928224906
   5      85.3546413510      0.2937850002
   6      31.0350352450      0.6740160450
 S 2 
   1      12.2608607280      0.6383993702
   2       4.9987076005      0.3953458713
 S 1 
   1       1.1703108158      1.0000000000
 S 1 
   1       0.4647474099      1.0000000000
 S 1 
   1       0.1850453636      1.0000000000
 P 4 
   1      63.2749548010      0.0120183321
   2      14.6270493790      0.0830054217
   3       4.4501223456      0.3199174393
   4       1.5275799647      0.7071554292
 P 1 
   1       0.5293511794      1.0000000000
 P 1 
   1       0.1747842127      1.0000000000
 D 1 
   1       2.3140000000      1.0000000000
 D 1 
   1       0.6450000000      1.0000000000
 F 1 
   1       1.4280000000      1.0000000000
  end;

---------------------------------
AUXILIARY/J BASIS SET INFORMATION
---------------------------------
There are 3 groups of distinct atoms

 Group   1 Type C   : 12s5p4d2f1g contracted to 6s4p3d1f1g pattern {711111/2111/211/2/1}
 Group   2 Type H   : 5s2p1d contracted to 3s1p1d pattern {311/2/1}
 Group   3 Type O   : 12s5p4d2f1g contracted to 6s4p3d1f1g pattern {711111/2111/211/2/1}

Atom   0C    basis set group =>   1
Atom   1C    basis set group =>   1
Atom   2C    basis set group =>   1
Atom   3C    basis set group =>   1
Atom   4C    basis set group =>   1
Atom   5C    basis set group =>   1
Atom   6H    basis set group =>   2
Atom   7H    basis set group =>   2
Atom   8H    basis set group =>   2
Atom   9H    basis set group =>   2
Atom  10H    basis set group =>   2
Atom  11C    basis set group =>   1
Atom  12C    basis set group =>   1
Atom  13C    basis set group =>   1
Atom  14C    basis set group =>   1
Atom  15C    basis set group =>   1
Atom  16H    basis set group =>   2
Atom  17H    basis set group =>   2
Atom  18O    basis set group =>   3
Atom  19H    basis set group =>   2

-------------------------------------
AUXILIARY/J BASIS SET IN INPUT FORMAT
-------------------------------------

 # Auxiliary/J basis set for element : H 
 NewAuxJGTO H 
 S 3 
   1      15.6752927000      0.1007184237
   2       3.6063578000      0.3404257499
   3       1.2080016000      0.6491996172
 S 1 
   1       0.4726794000      1.0000000000
 S 1 
   1       0.2018100000      1.0000000000
 P 2 
   1       2.0281365000      0.5596620919
   2       0.5358730000      0.5596620919
 D 1 
   1       2.2165124000      1.0000000000
  end;

 # Auxiliary/J basis set for element : C 
 NewAuxJGTO C 
 S 7 
   1    1861.0916331000      0.0134602335
   2     642.9939764000      0.0299160374
   3     235.1105725000      0.1008649584
   4      90.7028894000      0.2370970548
   5      36.7794552000      0.3924037254
   6      15.6046273000      0.3195862154
   7       6.8907294000      0.0530104441
 S 1 
   1       3.1478850000     -1.0000000000
 S 1 
   1       1.4777287000      1.0000000000
 S 1 
   1       0.7076466000      1.0000000000
 S 1 
   1       0.3430122000      1.0000000000
 S 1 
   1       0.1669453000      1.0000000000
 P 2 
   1      13.5472892000     -0.6769313712
   2       5.4669419000     -0.3779500978
 P 1 
   1       2.1751721000      1.0000000000
 P 1 
   1       0.8582194000      1.0000000000
 P 1 
   1       0.3376720000      1.0000000000
 D 2 
   1       5.9287253000     -0.3533329857
   2       1.9809209000     -0.7456525731
 D 1 
   1       0.8055417000     -1.0000000000
 D 1 
   1       0.3531244000     -1.0000000000
 F 2 
   1       1.6755626000      0.6311076882
   2       0.5997536000      0.4968166032
 G 1 
   1       1.0024600000     -1.0000000000
  end;

 # Auxiliary/J basis set for element : O 
 NewAuxJGTO O 
 S 7 
   1    2876.8216605000      0.0168151159
   2    1004.7443032000      0.0340137548
   3     369.7579954000      0.1194951309
   4     142.9442404000      0.2664627624
   5      57.8366425000      0.4202764046
   6      24.3864983000      0.2765077335
   7      10.6622662000      0.0057008815
 S 1 
   1       4.8070437000     -1.0000000000
 S 1 
   1       2.2210770000      1.0000000000
 S 1 
   1       1.0447795000      1.0000000000
 S 1 
   1       0.4968425000      1.0000000000
 S 1 
   1       0.2371384000      1.0000000000
 P 2 
   1      64.2613382000     -0.2731534179
   2      16.3006076000     -0.8168011598
 P 1 
   1       4.3550542000      1.0000000000
 P 1 
   1       1.2019554000      1.0000000000
 P 1 
   1       0.3354196000      1.0000000000
 D 2 
   1       9.2146611000     -0.4661230638
   2       2.8435251000     -0.6600908911
 D 1 
   1       0.9955759000     -1.0000000000
 D 1 
   1       0.3649441000     -1.0000000000
 F 2 
   1       2.6420115000      0.5931563945
   2       0.7345613000      0.5931563945
 G 1 
   1       1.3931000000     -1.0000000000
  end;



           ************************************************************
           *        Program running with 28 parallel MPI-processes    *
           *              working on a common directory               *
           ************************************************************
------------------------------------------------------------------------------
                           ORCA GTO INTEGRAL CALCULATION
------------------------------------------------------------------------------

                         BASIS SET STATISTICS AND STARTUP INFO

 # of primitive gaussian shells          ...  288
 # of primitive gaussian functions       ...  616
 # of contracted shells                  ...  164
 # of contracted basis functions         ...  420
 Highest angular momentum                ...    3
 Maximum contraction depth               ...    6
 Integral package used                   ... LIBINT
 Integral threshhold            Thresh   ...  2.500e-11
 Primitive cut-off              TCut     ...  2.500e-12


------------------------------ INTEGRAL EVALUATION ----------------------------


 * One electron integrals 
 Pre-screening matrix                    ... done
 Shell pair data                         ... done (   0.004 sec)



           ************************************************************
           *        Program running with 28 parallel MPI-processes    *
           *              working on a common directory               *
           ************************************************************
-------------------------------------------------------------------------------
                                 ORCA SCF
-------------------------------------------------------------------------------

------------
SCF SETTINGS
------------
Hamiltonian:
 Density Functional     Method          .... DFT(GTOs)
 Exchange Functional    Exchange        .... PBE
   PBE kappa parameter   XKappa         ....  0.804000
   PBE mue parameter    XMuePBE         ....  0.219520
 Correlation Functional Correlation     .... PBE
   PBE beta parameter  CBetaPBE         ....  0.066725
 LDA part of GGA corr.  LDAOpt          .... PW91-LDA
 Gradients option       PostSCFGGA      .... off
 Hybrid DFT is turned on
   Fraction HF Exchange ScalHFX         ....  0.250000
   Scaling of DF-GGA-X  ScalDFX         ....  0.750000
   Scaling of DF-GGA-C  ScalDFC         ....  1.000000
   Scaling of DF-LDA-C  ScalLDAC        ....  1.000000
   Perturbative correction              ....  0.000000
   Density functional embedding theory  .... OFF
   NL short-range parameter             ....  6.900000


General Settings:
 Integral files         IntName         .... p2r1
 Hartree-Fock type      HFTyp           .... RHF
 Total Charge           Charge          ....    0
 Multiplicity           Mult            ....    1
 Number of Electrons    NEL             ....   82
 Basis Dimension        Dim             ....  420
 Nuclear Repulsion      ENuc            ....    530.6321215171 Eh

Convergence Acceleration:
 DIIS                   CNVDIIS         .... on
   Start iteration      DIISMaxIt       ....    12
   Startup error        DIISStart       ....  0.200000
   # of expansion vecs  DIISMaxEq       ....     5
   Bias factor          DIISBfac        ....   1.050
   Max. coefficient     DIISMaxC        ....  10.000
 Newton-Raphson         CNVNR           .... off
 SOSCF                  CNVSOSCF        .... on
   Start iteration      SOSCFMaxIt      ....   150
   Startup grad/error   SOSCFStart      ....  0.003300
 Level Shifting         CNVShift        .... on
   Level shift para.    LevelShift      ....    0.2500
   Turn off err/grad.   ShiftErr        ....    0.0010
 Zerner damping         CNVZerner       .... off
 Static damping         CNVDamp         .... on
   Fraction old density DampFac         ....    0.7000
   Max. Damping (<1)    DampMax         ....    0.9800
   Min. Damping (>=0)   DampMin         ....    0.0000
   Turn off err/grad.   DampErr         ....    0.1000
 Fernandez-Rico         CNVRico         .... off

SCF Procedure:
 Maximum # iterations   MaxIter         ....   125
 SCF integral mode      SCFMode         .... Direct
   Integral package                     .... LIBINT
 Reset frequency        DirectResetFreq ....    20
 Integral Threshold     Thresh          ....  2.500e-11 Eh
 Primitive CutOff       TCut            ....  2.500e-12 Eh

Convergence Tolerance:
 Convergence Check Mode ConvCheckMode   .... Total+1el-Energy
 Convergence forced     ConvForced      .... 1
 Energy Change          TolE            ....  1.000e-08 Eh
 1-El. energy change                    ....  1.000e-05 Eh
 Orbital Gradient       TolG            ....  1.000e-05
 Orbital Rotation angle TolX            ....  1.000e-05
 DIIS Error             TolErr          ....  5.000e-07


Diagonalization of the overlap matrix:
Smallest eigenvalue                        ... 4.717e-06
Time for diagonalization                   ...    0.029 sec
Threshold for overlap eigenvalues          ... 1.000e-08
Number of eigenvalues below threshold      ... 0
Time for construction of square roots      ...    0.029 sec
Total time needed                          ...    0.059 sec

-------------------
DFT GRID GENERATION
-------------------

General Integration Accuracy     IntAcc      ...  4.340
Radial Grid Type                 RadialGrid  ... Gauss-Chebyshev
Angular Grid (max. acc.)         AngularGrid ... Lebedev-110
Angular grid pruning method      GridPruning ... 3 (G Style)
Weight generation scheme         WeightScheme... Becke
Basis function cutoff            BFCut       ...    1.0000e-11
Integration weight cutoff        WCut        ...    1.0000e-14
Grids for H and He will be reduced by one unit

# of grid points (after initial pruning)     ...  26284 (   0.0 sec)
# of grid points (after weights+screening)   ...  24605 (   0.0 sec)
nearest neighbour list constructed           ...    0.0 sec
Grid point re-assignment to atoms done       ...    0.0 sec
Grid point division into batches done        ...    0.0 sec
Reduced shell lists constructed in    0.1 sec

Total number of grid points                  ...    24605
Total number of batches                      ...      394
Average number of points per batch           ...       62
Average number of grid points per atom       ...     1230
Average number of shells per batch           ...    86.50 (52.74%)
Average number of basis functions per batch  ...   228.50 (54.40%)
Average number of large shells per batch     ...    69.75 (80.64%)
Average number of large basis fcns per batch ...   186.12 (81.46%)
Maximum spatial batch extension              ...   4.92,  3.91,  6.04 au
Average spatial batch extension              ...   0.08,  0.08,  0.09 au

Time for grid setup =    0.083 sec

------------------------------
INITIAL GUESS: MODEL POTENTIAL
------------------------------
Loading Hartree-Fock densities                     ... done
Calculating cut-offs                               ... done
Setting up the integral package                    ... done
Initializing the effective Hamiltonian             ... done
Starting the Coulomb interaction                   ... done (   0.0 sec)
Reading the grid                                   ... done
Mapping shells                                     ... done
Starting the XC term evaluation                    ... done (   0.0 sec)
  promolecular density results
     # of electrons  =     82.002565688
     EX              =    -66.705206239
     EC              =     -2.690277305
     EX+EC           =    -69.395483543
Transforming the Hamiltonian                       ... done (   0.0 sec)
Diagonalizing the Hamiltonian                      ... done (   0.0 sec)
Back transforming the eigenvectors                 ... done (   0.0 sec)
Now organizing SCF variables                       ... done
                      ------------------
                      INITIAL GUESS DONE (   0.3 sec)
                      ------------------
--------------
SCF ITERATIONS
--------------
               ***  Starting incremental Fock matrix formation  ***

                         ----------------------------
                         !        ITERATION     0   !
                         ----------------------------
   Total Energy        :    -498.405963702900 Eh
   Energy Change       :    -498.405963702900 Eh
   MAX-DP              :       0.376325119089
   RMS-DP              :       0.002567844074
   Actual Damping      :       0.7000
   Actual Level Shift  :       0.2500 Eh
   Int. Num. El.       :    82.00378110 (UP=   41.00189055 DN=   41.00189055)
   Exchange            :   -51.70925741
   Correlation         :    -2.72954480


                         ----------------------------
                         !        ITERATION     1   !
                         ----------------------------
   Total Energy        :    -498.521948983398 Eh
   Energy Change       :      -0.115985280498 Eh
   MAX-DP              :       0.355206511982
   RMS-DP              :       0.002255675949
   Actual Damping      :       0.7000
   Actual Level Shift  :       0.2500 Eh
   Int. Num. El.       :    82.00402796 (UP=   41.00201398 DN=   41.00201398)
   Exchange            :   -51.36611681
   Correlation         :    -2.72024718

                               ***Turning on DIIS***

                         ----------------------------
                         !        ITERATION     2   !
                         ----------------------------
   Total Energy        :    -498.575355042162 Eh
   Energy Change       :      -0.053406058764 Eh
   MAX-DP              :       0.501732818888
   RMS-DP              :       0.003514427993
   Actual Damping      :       0.0000
   Actual Level Shift  :       0.2500 Eh
   Int. Num. El.       :    82.00418506 (UP=   41.00209253 DN=   41.00209253)
   Exchange            :   -51.13182324
   Correlation         :    -2.71319074
   DIIS-Error          :       0.036214899700


                         ----------------------------
                         !        ITERATION     3   !
                         ----------------------------
   Total Energy        :    -498.657014778383 Eh
   Energy Change       :      -0.081659736222 Eh
   MAX-DP              :       0.346078852533
   RMS-DP              :       0.002073927783
   Actual Damping      :       0.0000
   Actual Level Shift  :       0.2500 Eh
   Int. Num. El.       :    82.00437642 (UP=   41.00218821 DN=   41.00218821)
   Exchange            :   -50.75265109
   Correlation         :    -2.70316135
   DIIS-Error          :       0.052778908192
   DIIS coefficients:
      0.46971   0.53029


                         ----------------------------
                         !        ITERATION     4   !
                         ----------------------------
   Total Energy        :    -498.672987082660 Eh
   Energy Change       :      -0.015972304277 Eh
   MAX-DP              :       0.072441146512
   RMS-DP              :       0.000535070624
   Actual Damping      :       0.0000
   Actual Level Shift  :       0.2500 Eh
   Int. Num. El.       :    82.00422013 (UP=   41.00211007 DN=   41.00211007)
   Exchange            :   -50.91137810
   Correlation         :    -2.70821468
   DIIS-Error          :       0.010012841203
   DIIS coefficients:
      0.17615   0.10496   0.71889


                         ----------------------------
                         !        ITERATION     5   !
                         ----------------------------
   Total Energy        :    -498.673775967166 Eh
   Energy Change       :      -0.000788884506 Eh
   MAX-DP              :       0.047979940093
   RMS-DP              :       0.000273863445
   Actual Damping      :       0.0000
   Actual Level Shift  :       0.2500 Eh
   Int. Num. El.       :    82.00420717 (UP=   41.00210358 DN=   41.00210358)
   Exchange            :   -50.92929307
   Correlation         :    -2.70941176
   DIIS-Error          :       0.005647191768
   DIIS coefficients:
      0.03947   0.00692   0.17079   0.78282

                      *** Initiating the SOSCF procedure ***
                           *** Shutting down DIIS ***
                      *** Re-Reading the Fockian *** 
                      *** Removing any level shift *** 

                         ----------------------------
                         !        ITERATION     6   !
                         ----------------------------
   Total Energy        :    -498.673827714239 Eh
   Energy Change       :      -0.000051747073 Eh
   MAX-DP              :       0.014153425137
   RMS-DP              :       0.000086380000
   Orbital gradient    :       0.000259325870
   Orbital Rotation    :       0.000259325870
   Actual Damping      :       0.0000
   Int. Num. El.       :    82.00420389 (UP=   41.00210194 DN=   41.00210194)
   Exchange            :   -50.93651944
   Correlation         :    -2.70966498

               *** Restarting incremental Fock matrix formation ***

                         ----------------------------
                         !        ITERATION     7   !
                         ----------------------------
   Total Energy        :    -498.673833491064 Eh
   Energy Change       :      -0.000005776825 Eh
   MAX-DP              :       0.005783832491
   RMS-DP              :       0.000041285637
   Orbital gradient    :       0.000146835785
   Orbital Rotation    :       0.000568754092
   Actual Damping      :       0.0000
   Int. Num. El.       :    82.00420273 (UP=   41.00210137 DN=   41.00210137)
   Exchange            :   -50.93664920
   Correlation         :    -2.70975309


                         ----------------------------
                         !        ITERATION     8   !
                         ----------------------------
   Total Energy        :    -498.673833694682 Eh
   Energy Change       :      -0.000000203618 Eh
   MAX-DP              :       0.004617020790
   RMS-DP              :       0.000027351708
   Orbital gradient    :       0.000159783209
   Orbital Rotation    :       0.000335083369
   Actual Damping      :       0.0000
   Int. Num. El.       :    82.00420425 (UP=   41.00210213 DN=   41.00210213)
   Exchange            :   -50.93613625
   Correlation         :    -2.70975532


                         ----------------------------
                         !        ITERATION     9   !
                         ----------------------------
   Total Energy        :    -498.673834239546 Eh
   Energy Change       :      -0.000000544864 Eh
   MAX-DP              :       0.001744989318
   RMS-DP              :       0.000012518486
   Orbital gradient    :       0.000073126052
   Orbital Rotation    :       0.000133835470
   Actual Damping      :       0.0000
   Int. Num. El.       :    82.00420411 (UP=   41.00210206 DN=   41.00210206)
   Exchange            :   -50.93645235
   Correlation         :    -2.70977304


                         ----------------------------
                         !        ITERATION    10   !
                         ----------------------------
   Total Energy        :    -498.673834225056 Eh
   Energy Change       :       0.000000014491 Eh
   MAX-DP              :       0.001115962502
   RMS-DP              :       0.000006253590
   Orbital gradient    :       0.000043775023
   Orbital Rotation    :       0.000077154153
   Actual Damping      :       0.0000
   Int. Num. El.       :    82.00420361 (UP=   41.00210181 DN=   41.00210181)
   Exchange            :   -50.93662207
   Correlation         :    -2.70977209


                         ----------------------------
                         !        ITERATION    11   !
                         ----------------------------
   Total Energy        :    -498.673834319181 Eh
   Energy Change       :      -0.000000094126 Eh
   MAX-DP              :       0.000805408200
   RMS-DP              :       0.000005032772
   Orbital gradient    :       0.000011278330
   Orbital Rotation    :       0.000049068258
   Actual Damping      :       0.0000
   Int. Num. El.       :    82.00420380 (UP=   41.00210190 DN=   41.00210190)
   Exchange            :   -50.93646787
   Correlation         :    -2.70976618


                         ----------------------------
                         !        ITERATION    12   !
                         ----------------------------
   Total Energy        :    -498.673834320456 Eh
   Energy Change       :      -0.000000001274 Eh
   MAX-DP              :       0.000028610918
   RMS-DP              :       0.000000383606
   Orbital gradient    :       0.000011124702
   Orbital Rotation    :       0.000018720585
   Actual Damping      :       0.0000
   Int. Num. El.       :    82.00420389 (UP=   41.00210194 DN=   41.00210194)
   Exchange            :   -50.93647171
   Correlation         :    -2.70976777


                         ----------------------------
                         !        ITERATION    13   !
                         ----------------------------
   Total Energy        :    -498.673834320119 Eh
   Energy Change       :       0.000000000337 Eh
   MAX-DP              :       0.000201200159
   RMS-DP              :       0.000001264696
   Orbital gradient    :       0.000002939271
   Orbital Rotation    :       0.000011106459
   Actual Damping      :       0.0000
   Int. Num. El.       :    82.00420387 (UP=   41.00210194 DN=   41.00210194)
   Exchange            :   -50.93648454
   Correlation         :    -2.70976845


                         ----------------------------
                         !        ITERATION    14   !
                         ----------------------------
   Total Energy        :    -498.673834317831 Eh
   Energy Change       :       0.000000002289 Eh
   MAX-DP              :       0.000079322677
   RMS-DP              :       0.000000652262
   Orbital gradient    :       0.000003741843
   Orbital Rotation    :       0.000007789036
   Actual Damping      :       0.0000
   Int. Num. El.       :    82.00420384 (UP=   41.00210192 DN=   41.00210192)
   Exchange            :   -50.93647845
   Correlation         :    -2.70976763

                  ***Gradient check signals convergence***
              ***Rediagonalizing the Fockian in SOSCF/NRSCF***

               *****************************************************
               *                     SUCCESS                       *
               *           SCF CONVERGED AFTER  15 CYCLES          *
               *****************************************************

Setting up the final grid:

General Integration Accuracy     IntAcc      ...  4.670
Radial Grid Type                 RadialGrid  ... Gauss-Chebyshev
Angular Grid (max. acc.)         AngularGrid ... Lebedev-302
Angular grid pruning method      GridPruning ... 3 (G Style)
Weight generation scheme         WeightScheme... Becke
Basis function cutoff            BFCut       ...    1.0000e-11
Integration weight cutoff        WCut        ...    1.0000e-14
Grids for H and He will be reduced by one unit

# of grid points (after initial pruning)     ... 101696 (   0.0 sec)
# of grid points (after weights+screening)   ...  93896 (   0.0 sec)
nearest neighbour list constructed           ...    0.0 sec
Grid point re-assignment to atoms done       ...    0.0 sec
Grid point division into batches done        ...    0.5 sec
Reduced shell lists constructed in    0.6 sec

Total number of grid points                  ...    93896
Total number of batches                      ...     1475
Average number of points per batch           ...       63
Average number of grid points per atom       ...     4695
Average number of shells per batch           ...    85.04 (51.85%)
Average number of basis functions per batch  ...   224.44 (53.44%)
Average number of large shells per batch     ...    67.81 (79.75%)
Average number of large basis fcns per batch ...   179.52 (79.98%)
Maximum spatial batch extension              ...  12.02,  9.12, 13.76 au
Average spatial batch extension              ...   0.06,  0.06,  0.06 au

Final grid set up in    0.7 sec
Final integration                            ... done (   0.2 sec)
Change in XC energy                          ...     0.001126224
Integrated number of electrons               ...    81.999925074
Previous integrated no of electrons          ...    82.004203849

----------------
TOTAL SCF ENERGY
----------------

Total Energy       :         -498.67270809 Eh          -13569.57425 eV

Components:
Nuclear Repulsion  :          530.63212152 Eh           14439.23410 eV
Electronic Energy  :        -1029.30482961 Eh          -28008.80835 eV
One Electron Energy:        -1725.28493815 Eh          -46947.38993 eV
Two Electron Energy:          695.98010854 Eh           18938.58157 eV

Virial components:
Potential Energy   :         -995.03382459 Eh          -27076.24690 eV
Kinetic Energy     :          496.36111650 Eh           13506.67265 eV
Virial Ratio       :            2.00465708


DFT components:
N(Alpha)           :       40.999962537030 electrons
N(Beta)            :       40.999962537030 electrons
N(Total)           :       81.999925074061 electrons
E(X)               :      -50.935764861942 Eh       
E(C)               :       -2.709356348028 Eh       
E(XC)              :      -53.645121209971 Eh       
DFET-embed. en.    :        0.000000000000 Eh       

---------------
SCF CONVERGENCE
---------------

  Last Energy change         ...    2.3940e-09  Tolerance :   1.0000e-08
  Last MAX-Density change    ...    1.0053e-04  Tolerance :   1.0000e-07
  Last RMS-Density change    ...    7.6187e-07  Tolerance :   5.0000e-09
  Last Orbital Gradient      ...    2.1435e-06  Tolerance :   1.0000e-05
  Last Orbital Rotation      ...    5.8746e-06  Tolerance :   1.0000e-05

             **** THE GBW FILE WAS UPDATED (p2r1.gbw) ****
             **** DENSITY FILE WAS UPDATED (p2r1.scfp) ****
             **** ENERGY FILE WAS UPDATED (p2r1.en.tmp) ****
             **** THE GBW FILE WAS UPDATED (p2r1.gbw) ****
             **** DENSITY FILE WAS UPDATED (p2r1.scfp) ****
----------------
ORBITAL ENERGIES
----------------

  NO   OCC          E(Eh)            E(eV) 
   0   2.0000     -19.218608      -522.9649 
   1   2.0000     -10.300873      -280.3010 
   2   2.0000     -10.264228      -279.3039 
   3   2.0000     -10.247424      -278.8466 
   4   2.0000     -10.246718      -278.8274 
   5   2.0000     -10.244340      -278.7627 
   6   2.0000     -10.243183      -278.7312 
   7   2.0000     -10.243008      -278.7264 
   8   2.0000     -10.242639      -278.7164 
   9   2.0000     -10.240912      -278.6694 
  10   2.0000     -10.239590      -278.6334 
  11   2.0000     -10.239376      -278.6276 
  12   2.0000      -1.069214       -29.0948 
  13   2.0000      -0.905503       -24.6400 
  14   2.0000      -0.835701       -22.7406 
  15   2.0000      -0.811673       -22.0868 
  16   2.0000      -0.786461       -21.4007 
  17   2.0000      -0.773438       -21.0463 
  18   2.0000      -0.727169       -19.7873 
  19   2.0000      -0.662493       -18.0273 
  20   2.0000      -0.640367       -17.4253 
  21   2.0000      -0.615882       -16.7590 
  22   2.0000      -0.566665       -15.4197 
  23   2.0000      -0.554123       -15.0784 
  24   2.0000      -0.506119       -13.7722 
  25   2.0000      -0.500261       -13.6128 
  26   2.0000      -0.487580       -13.2677 
  27   2.0000      -0.476147       -12.9566 
  28   2.0000      -0.460258       -12.5242 
  29   2.0000      -0.448908       -12.2154 
  30   2.0000      -0.413927       -11.2635 
  31   2.0000      -0.389591       -10.6013 
  32   2.0000      -0.382139       -10.3985 
  33   2.0000      -0.374606       -10.1935 
  34   2.0000      -0.367920       -10.0116 
  35   2.0000      -0.356233        -9.6936 
  36   2.0000      -0.317312        -8.6345 
  37   2.0000      -0.306771        -8.3477 
  38   2.0000      -0.282613        -7.6903 
  39   2.0000      -0.260966        -7.1012 
  40   2.0000      -0.243896        -6.6367 
  41   0.0000      -0.060100        -1.6354 
  42   0.0000      -0.018826        -0.5123 
  43   0.0000      -0.016113        -0.4385 
  44   0.0000       0.014328         0.3899 
  45   0.0000       0.048229         1.3124 
  46   0.0000       0.050174         1.3653 
  47   0.0000       0.078726         2.1423 
  48   0.0000       0.083558         2.2737 
  49   0.0000       0.084521         2.2999 
  50   0.0000       0.108213         2.9446 
  51   0.0000       0.110126         2.9967 
  52   0.0000       0.112383         3.0581 
  53   0.0000       0.120772         3.2864 
  54   0.0000       0.128795         3.5047 
  55   0.0000       0.138146         3.7592 
  56   0.0000       0.154119         4.1938 
  57   0.0000       0.165825         4.5123 
  58   0.0000       0.178958         4.8697 
  59   0.0000       0.181576         4.9409 
  60   0.0000       0.194574         5.2946 
  61   0.0000       0.197099         5.3633 
  62   0.0000       0.209616         5.7040 
  63   0.0000       0.222052         6.0424 
  64   0.0000       0.226340         6.1590 
  65   0.0000       0.231143         6.2897 
  66   0.0000       0.231897         6.3102 
  67   0.0000       0.233845         6.3633 
  68   0.0000       0.237010         6.4494 
  69   0.0000       0.251161         6.8344 
  70   0.0000       0.251733         6.8500 
  71   0.0000       0.266290         7.2461 
  72   0.0000       0.271608         7.3908 
  73   0.0000       0.283956         7.7268 
  74   0.0000       0.302338         8.2270 
  75   0.0000       0.312385         8.5004 
  76   0.0000       0.327649         8.9158 
  77   0.0000       0.328375         8.9355 
  78   0.0000       0.334203         9.0941 
  79   0.0000       0.338714         9.2169 
  80   0.0000       0.353341         9.6149 
  81   0.0000       0.359861         9.7923 
  82   0.0000       0.362211         9.8563 
  83   0.0000       0.372552        10.1376 
  84   0.0000       0.384229        10.4554 
  85   0.0000       0.388511        10.5719 
  86   0.0000       0.395496        10.7620 
  87   0.0000       0.400403        10.8955 
  88   0.0000       0.411139        11.1877 
  89   0.0000       0.414964        11.2918 
  90   0.0000       0.423239        11.5169 
  91   0.0000       0.428734        11.6665 
  92   0.0000       0.442184        12.0324 
  93   0.0000       0.450836        12.2679 
  94   0.0000       0.462066        12.5735 
  95   0.0000       0.468382        12.7453 
  96   0.0000       0.471810        12.8386 
  97   0.0000       0.481854        13.1119 
  98   0.0000       0.489529        13.3208 
  99   0.0000       0.498379        13.5616 
 100   0.0000       0.500381        13.6161 
 101   0.0000       0.507639        13.8136 
 102   0.0000       0.519934        14.1481 
 103   0.0000       0.532613        14.4931 
 104   0.0000       0.534974        14.5574 
 105   0.0000       0.537504        14.6262 
 106   0.0000       0.549230        14.9453 
 107   0.0000       0.572289        15.5728 
 108   0.0000       0.591098        16.0846 
 109   0.0000       0.598389        16.2830 
 110   0.0000       0.616173        16.7669 
 111   0.0000       0.624852        17.0031 
 112   0.0000       0.631284        17.1781 
 113   0.0000       0.650150        17.6915 
 114   0.0000       0.654888        17.8204 
 115   0.0000       0.670231        18.2379 
 116   0.0000       0.679572        18.4921 
 117   0.0000       0.683663        18.6034 
 118   0.0000       0.684791        18.6341 
 119   0.0000       0.690238        18.7823 
 120   0.0000       0.707735        19.2584 
 121   0.0000       0.726705        19.7746 
 122   0.0000       0.737731        20.0747 
 123   0.0000       0.740060        20.1380 
 124   0.0000       0.754908        20.5421 
 125   0.0000       0.763289        20.7702 
 126   0.0000       0.775542        21.1036 
 127   0.0000       0.794110        21.6088 
 128   0.0000       0.819367        22.2961 
 129   0.0000       0.831927        22.6379 
 130   0.0000       0.840889        22.8818 
 131   0.0000       0.858935        23.3728 
 132   0.0000       0.863559        23.4986 
 133   0.0000       0.873922        23.7806 
 134   0.0000       0.887156        24.1407 
 135   0.0000       0.895934        24.3796 
 136   0.0000       0.908830        24.7305 
 137   0.0000       0.910850        24.7855 
 138   0.0000       0.930581        25.3224 
 139   0.0000       0.941144        25.6098 
 140   0.0000       0.957538        26.0559 
 141   0.0000       0.985826        26.8257 
 142   0.0000       0.994658        27.0660 
 143   0.0000       0.998789        27.1784 
 144   0.0000       1.029215        28.0064 
 145   0.0000       1.033876        28.1332 
 146   0.0000       1.042486        28.3675 
 147   0.0000       1.055671        28.7263 
 148   0.0000       1.074284        29.2328 
 149   0.0000       1.101870        29.9834 
 150   0.0000       1.116417        30.3793 
 151   0.0000       1.141980        31.0749 
 152   0.0000       1.157297        31.4917 
 153   0.0000       1.172631        31.9089 
 154   0.0000       1.194260        32.4975 
 155   0.0000       1.199009        32.6267 
 156   0.0000       1.214854        33.0579 
 157   0.0000       1.221375        33.2353 
 158   0.0000       1.228015        33.4160 
 159   0.0000       1.237090        33.6629 
 160   0.0000       1.261426        34.3251 
 161   0.0000       1.292210        35.1628 
 162   0.0000       1.308689        35.6112 
 163   0.0000       1.328926        36.1619 
 164   0.0000       1.343518        36.5590 
 165   0.0000       1.357427        36.9375 
 166   0.0000       1.379331        37.5335 
 167   0.0000       1.389740        37.8167 
 168   0.0000       1.408151        38.3177 
 169   0.0000       1.416921        38.5564 
 170   0.0000       1.427607        38.8472 
 171   0.0000       1.439764        39.1780 
 172   0.0000       1.457065        39.6487 
 173   0.0000       1.463209        39.8159 
 174   0.0000       1.471894        40.0523 
 175   0.0000       1.474378        40.1199 
 176   0.0000       1.491217        40.5781 
 177   0.0000       1.497003        40.7355 
 178   0.0000       1.498389        40.7732 
 179   0.0000       1.519303        41.3423 
 180   0.0000       1.530896        41.6578 
 181   0.0000       1.553149        42.2633 
 182   0.0000       1.564009        42.5589 
 183   0.0000       1.569009        42.6949 
 184   0.0000       1.577430        42.9240 
 185   0.0000       1.603258        43.6269 
 186   0.0000       1.610035        43.8113 
 187   0.0000       1.613734        43.9119 
 188   0.0000       1.640003        44.6267 
 189   0.0000       1.644080        44.7377 
 190   0.0000       1.666158        45.3385 
 191   0.0000       1.689978        45.9866 
 192   0.0000       1.692583        46.0575 
 193   0.0000       1.698861        46.2284 
 194   0.0000       1.711911        46.5835 
 195   0.0000       1.716731        46.7146 
 196   0.0000       1.750887        47.6441 
 197   0.0000       1.763521        47.9878 
 198   0.0000       1.807368        49.1810 
 199   0.0000       1.815404        49.3997 
 200   0.0000       1.833824        49.9009 
 201   0.0000       1.842709        50.1427 
 202   0.0000       1.855311        50.4856 
 203   0.0000       1.865659        50.7672 
 204   0.0000       1.873644        50.9844 
 205   0.0000       1.888265        51.3823 
 206   0.0000       1.907996        51.9192 
 207   0.0000       1.909797        51.9682 
 208   0.0000       1.931778        52.5663 
 209   0.0000       1.964073        53.4451 
 210   0.0000       1.991655        54.1957 
 211   0.0000       1.996516        54.3280 
 212   0.0000       2.013865        54.8000 
 213   0.0000       2.036505        55.4161 
 214   0.0000       2.041038        55.5395 
 215   0.0000       2.061928        56.1079 
 216   0.0000       2.074806        56.4583 
 217   0.0000       2.101682        57.1897 
 218   0.0000       2.142668        58.3050 
 219   0.0000       2.154217        58.6192 
 220   0.0000       2.156811        58.6898 
 221   0.0000       2.198782        59.8319 
 222   0.0000       2.202583        59.9353 
 223   0.0000       2.227477        60.6127 
 224   0.0000       2.241456        60.9931 
 225   0.0000       2.245184        61.0946 
 226   0.0000       2.277239        61.9668 
 227   0.0000       2.287054        62.2339 
 228   0.0000       2.317668        63.0669 
 229   0.0000       2.331316        63.4383 
 230   0.0000       2.394135        65.1477 
 231   0.0000       2.408296        65.5331 
 232   0.0000       2.413925        65.6862 
 233   0.0000       2.421728        65.8986 
 234   0.0000       2.437396        66.3249 
 235   0.0000       2.447924        66.6114 
 236   0.0000       2.458240        66.8921 
 237   0.0000       2.477552        67.4176 
 238   0.0000       2.488294        67.7099 
 239   0.0000       2.504640        68.1547 
 240   0.0000       2.517283        68.4988 
 241   0.0000       2.524499        68.6951 
 242   0.0000       2.555426        69.5367 
 243   0.0000       2.562113        69.7186 
 244   0.0000       2.591956        70.5307 
 245   0.0000       2.612524        71.0904 
 246   0.0000       2.616287        71.1928 
 247   0.0000       2.620589        71.3099 
 248   0.0000       2.627276        71.4918 
 249   0.0000       2.631775        71.6142 
 250   0.0000       2.661216        72.4154 
 251   0.0000       2.667203        72.5783 
 252   0.0000       2.671110        72.6846 
 253   0.0000       2.677886        72.8690 
 254   0.0000       2.679893        72.9236 
 255   0.0000       2.691538        73.2405 
 256   0.0000       2.715174        73.8836 
 257   0.0000       2.729875        74.2837 
 258   0.0000       2.741219        74.5923 
 259   0.0000       2.752051        74.8871 
 260   0.0000       2.760024        75.1041 
 261   0.0000       2.771874        75.4265 
 262   0.0000       2.783869        75.7529 
 263   0.0000       2.796747        76.1034 
 264   0.0000       2.807095        76.3849 
 265   0.0000       2.818499        76.6953 
 266   0.0000       2.819579        76.7246 
 267   0.0000       2.821363        76.7732 
 268   0.0000       2.823635        76.8350 
 269   0.0000       2.832307        77.0710 
 270   0.0000       2.840704        77.2995 
 271   0.0000       2.845069        77.4183 
 272   0.0000       2.847399        77.4817 
 273   0.0000       2.857961        77.7691 
 274   0.0000       2.881862        78.4195 
 275   0.0000       2.883403        78.4614 
 276   0.0000       2.890102        78.6437 
 277   0.0000       2.891136        78.6718 
 278   0.0000       2.925764        79.6141 
 279   0.0000       2.936245        79.8993 
 280   0.0000       2.944560        80.1255 
 281   0.0000       2.949741        80.2665 
 282   0.0000       2.991424        81.4008 
 283   0.0000       2.998126        81.5832 
 284   0.0000       3.002413        81.6998 
 285   0.0000       3.014600        82.0314 
 286   0.0000       3.019947        82.1769 
 287   0.0000       3.030557        82.4657 
 288   0.0000       3.035610        82.6032 
 289   0.0000       3.051945        83.0477 
 290   0.0000       3.061428        83.3057 
 291   0.0000       3.069581        83.5276 
 292   0.0000       3.091606        84.1269 
 293   0.0000       3.105333        84.5004 
 294   0.0000       3.114421        84.7477 
 295   0.0000       3.125558        85.0508 
 296   0.0000       3.145393        85.5905 
 297   0.0000       3.147983        85.6610 
 298   0.0000       3.159721        85.9804 
 299   0.0000       3.176098        86.4260 
 300   0.0000       3.191990        86.8585 
 301   0.0000       3.198805        87.0439 
 302   0.0000       3.210040        87.3496 
 303   0.0000       3.229892        87.8898 
 304   0.0000       3.231648        87.9376 
 305   0.0000       3.248799        88.4043 
 306   0.0000       3.266629        88.8895 
 307   0.0000       3.280081        89.2556 
 308   0.0000       3.295434        89.6733 
 309   0.0000       3.302627        89.8690 
 310   0.0000       3.312882        90.1481 
 311   0.0000       3.317566        90.2755 
 312   0.0000       3.342062        90.9421 
 313   0.0000       3.352669        91.2308 
 314   0.0000       3.362089        91.4871 
 315   0.0000       3.374258        91.8182 
 316   0.0000       3.389053        92.2208 
 317   0.0000       3.389503        92.2331 
 318   0.0000       3.404321        92.6363 
 319   0.0000       3.425971        93.2254 
 320   0.0000       3.441663        93.6524 
 321   0.0000       3.470511        94.4374 
 322   0.0000       3.472945        94.5036 
 323   0.0000       3.485482        94.8448 
 324   0.0000       3.497175        95.1630 
 325   0.0000       3.502647        95.3119 
 326   0.0000       3.519078        95.7590 
 327   0.0000       3.557467        96.8036 
 328   0.0000       3.559995        96.8724 
 329   0.0000       3.569891        97.1417 
 330   0.0000       3.590444        97.7009 
 331   0.0000       3.599377        97.9440 
 332   0.0000       3.628803        98.7448 
 333   0.0000       3.635877        98.9372 
 334   0.0000       3.670798        99.8875 
 335   0.0000       3.685822       100.2963 
 336   0.0000       3.713590       101.0519 
 337   0.0000       3.739948       101.7692 
 338   0.0000       3.756186       102.2110 
 339   0.0000       3.792660       103.2035 
 340   0.0000       3.802187       103.4628 
 341   0.0000       3.845670       104.6460 
 342   0.0000       3.900023       106.1250 
 343   0.0000       3.902535       106.1934 
 344   0.0000       3.927190       106.8643 
 345   0.0000       3.952484       107.5526 
 346   0.0000       3.979818       108.2963 
 347   0.0000       3.991290       108.6085 
 348   0.0000       4.019320       109.3712 
 349   0.0000       4.057290       110.4045 
 350   0.0000       4.064900       110.6115 
 351   0.0000       4.086844       111.2087 
 352   0.0000       4.131169       112.4148 
 353   0.0000       4.155765       113.0841 
 354   0.0000       4.198996       114.2605 
 355   0.0000       4.209812       114.5548 
 356   0.0000       4.215039       114.6970 
 357   0.0000       4.222763       114.9072 
 358   0.0000       4.243304       115.4662 
 359   0.0000       4.244842       115.5080 
 360   0.0000       4.272750       116.2674 
 361   0.0000       4.297435       116.9391 
 362   0.0000       4.305966       117.1713 
 363   0.0000       4.344711       118.2256 
 364   0.0000       4.397256       119.6554 
 365   0.0000       4.411910       120.0542 
 366   0.0000       4.418234       120.2263 
 367   0.0000       4.439431       120.8031 
 368   0.0000       4.560338       124.0931 
 369   0.0000       4.581193       124.6606 
 370   0.0000       4.615332       125.5896 
 371   0.0000       4.663833       126.9094 
 372   0.0000       4.695391       127.7681 
 373   0.0000       4.712074       128.2220 
 374   0.0000       4.737537       128.9149 
 375   0.0000       4.761110       129.5564 
 376   0.0000       4.771357       129.8352 
 377   0.0000       4.841458       131.7428 
 378   0.0000       4.896916       133.2518 
 379   0.0000       4.948673       134.6602 
 380   0.0000       5.004858       136.1891 
 381   0.0000       5.098336       138.7328 
 382   0.0000       5.158400       140.3672 
 383   0.0000       5.170822       140.7052 
 384   0.0000       5.202938       141.5791 
 385   0.0000       5.246957       142.7770 
 386   0.0000       5.262787       143.2077 
 387   0.0000       5.272124       143.4618 
 388   0.0000       5.304315       144.3377 
 389   0.0000       5.310866       144.5160 
 390   0.0000       5.351120       145.6114 
 391   0.0000       5.373929       146.2320 
 392   0.0000       5.460622       148.5911 
 393   0.0000       5.496065       149.5555 
 394   0.0000       5.561179       151.3274 
 395   0.0000       5.569145       151.5441 
 396   0.0000       5.752557       156.5350 
 397   0.0000       5.766994       156.9279 
 398   0.0000       5.798820       157.7939 
 399   0.0000       5.923011       161.1733 
 400   0.0000       5.959778       162.1738 
 401   0.0000       6.036430       164.2596 
 402   0.0000       6.305362       171.5776 
 403   0.0000       6.475249       176.2005 
 404   0.0000       6.689634       182.0342 
 405   0.0000       6.783645       184.5924 
 406   0.0000       6.971038       189.6916 
 407   0.0000       7.162350       194.8975 
 408   0.0000      22.267147       605.9199 
 409   0.0000      22.599931       614.9754 
 410   0.0000      22.671502       616.9229 
 411   0.0000      22.686087       617.3198 
 412   0.0000      22.803129       620.5047 
 413   0.0000      22.910146       623.4168 
 414   0.0000      23.206010       631.4676 
 415   0.0000      23.463808       638.4827 
 416   0.0000      23.618820       642.7008 
 417   0.0000      24.498592       666.6406 
 418   0.0000      24.578927       668.8266 
 419   0.0000      43.817318      1192.3298 
------------------
MOLECULAR ORBITALS
------------------
                      0         1         2         3         4         5   
                 -19.21861 -10.30087 -10.26423 -10.24742 -10.24672 -10.24434
                   2.00000   2.00000   2.00000   2.00000   2.00000   2.00000
                  --------  --------  --------  --------  --------  --------
  0C   1s         0.000000 -0.000005  0.000160 -0.000005  0.000019  0.000065
  0C   2s        -0.000001  0.000003  0.000110 -0.000005  0.000025  0.000084
  0C   3s         0.000010 -0.000090  0.000797 -0.000041 -0.000093  0.000011
  0C   4s        -0.000027 -0.000011  0.001025 -0.000109 -0.000595 -0.001954
  0C   5s        -0.000006 -0.001585  0.003450  0.001970  0.001876  0.025512
  0C   1pz        0.000001 -0.000003  0.000005  0.000002  0.000002  0.000001
  0C   1px       -0.000001 -0.000002  0.000075  0.000004  0.000006  0.000000
  0C   1py        0.000001 -0.000011  0.000113  0.000009  0.000013  0.000002
  0C   2pz       -0.000025  0.000063  0.000148 -0.000029 -0.000067 -0.000034
  0C   2px        0.000024 -0.000109  0.000245  0.000051  0.000106  0.000078
  0C   2py       -0.000013 -0.000020  0.000618  0.000011  0.000025  0.000046
  0C   3pz        0.000018 -0.000066  0.000045  0.000090  0.000028  0.000656
  0C   3px       -0.000028 -0.000122  0.000700  0.000326  0.000617  0.004880
  0C   3py       -0.000016 -0.000292  0.001058  0.000616  0.000909  0.007999
  0C   1dz2      -0.000001  0.000005 -0.000018 -0.000014 -0.000018 -0.000021
  0C   1dxz      -0.000001  0.000003 -0.000045  0.000007  0.000019  0.000034
  0C   1dyz      -0.000000 -0.000004  0.000033 -0.000001 -0.000008 -0.000015
  0C   1dx2y2    -0.000001  0.000003 -0.000007 -0.000011 -0.000016 -0.000021
  0C   1dxy       0.000001 -0.000008  0.000020  0.000023  0.000031  0.000037
  0C   2dz2       0.000003 -0.000059  0.000494  0.000010 -0.000115 -0.000104
  0C   2dxz       0.000004  0.000019 -0.000496 -0.000002  0.000050  0.000192
  0C   2dyz      -0.000012  0.000040  0.000221 -0.000016 -0.000038 -0.000107
  0C   2dx2y2     0.000013 -0.000073  0.000415  0.000019 -0.000065 -0.000095
  0C   2dxy      -0.000000  0.000084 -0.000858 -0.000011  0.000199  0.000199
  0C   1f0       -0.000000  0.000000  0.000000  0.000000  0.000003 -0.000005
  0C   1f+1       0.000000  0.000002  0.000005  0.000000 -0.000000 -0.000017
  0C   1f-1      -0.000001  0.000006  0.000017 -0.000001  0.000002 -0.000028
  0C   1f+2       0.000000  0.000000 -0.000031  0.000000 -0.000014 -0.000010
  0C   1f-2       0.000001 -0.000003 -0.000020  0.000001 -0.000009  0.000005
  0C   1f+3       0.000001 -0.000008 -0.000028  0.000002 -0.000005  0.000042
  0C   1f-3      -0.000000  0.000001  0.000001 -0.000000 -0.000003 -0.000003
  1C   1s         0.000000 -0.000006 -0.000015  0.000003  0.000025  0.000188
  1C   2s        -0.000001  0.000003 -0.000025  0.000003  0.000027  0.000214
  1C   3s        -0.000006 -0.000012 -0.001210  0.000213  0.000510  0.001001
  1C   4s         0.000108 -0.000564  0.010894 -0.001439 -0.002893 -0.005914
  1C   5s        -0.000122  0.001992 -0.002035 -0.000841 -0.002785 -0.032919
  1C   1pz        0.000001 -0.000004 -0.000027  0.000017  0.000047  0.000072
  1C   1px       -0.000000  0.000005 -0.000132  0.000004  0.000009  0.000057
  1C   1py        0.000000 -0.000005 -0.000235  0.000040  0.000101  0.000212
  1C   2pz       -0.000009 -0.000023  0.001714 -0.000008 -0.000229 -0.000814
  1C   2px        0.000048 -0.000296  0.003804 -0.000633 -0.000979 -0.002205
  1C   2py        0.000064 -0.000417  0.008484 -0.000907 -0.001783 -0.004577
  1C   3pz       -0.000052  0.000707  0.000183 -0.000649 -0.000337 -0.007060
  1C   3px       -0.000015 -0.000233  0.000675  0.000435 -0.000081  0.002002
  1C   3py       -0.000105  0.000967  0.001273 -0.000587 -0.000747 -0.010377
  1C   1dz2      -0.000001  0.000003 -0.000049  0.000018  0.000043  0.000069
  1C   1dxz      -0.000000  0.000005 -0.000044  0.000004  0.000020  0.000019
  1C   1dyz       0.000001 -0.000009  0.000059  0.000034  0.000057  0.000057
  1C   1dx2y2    -0.000001  0.000006 -0.000046 -0.000019 -0.000035 -0.000021
  1C   1dxy       0.000001 -0.000006  0.000060 -0.000041 -0.000095 -0.000136
  1C   2dz2      -0.000014  0.000074 -0.001199  0.000205  0.000289  0.000652
  1C   2dxz       0.000003 -0.000077  0.001039 -0.000029 -0.000130 -0.000492
  1C   2dyz      -0.000005 -0.000022  0.000917 -0.000106 -0.000420 -0.000633
  1C   2dx2y2    -0.000011  0.000095 -0.002073  0.000221  0.000581  0.001185
  1C   2dxy       0.000020 -0.000103  0.001553 -0.000298 -0.000307 -0.000797
  1C   1f0        0.000000  0.000005 -0.000046  0.000002  0.000009  0.000033
  1C   1f+1      -0.000001  0.000006 -0.000029  0.000032  0.000059  0.000072
  1C   1f-1      -0.000001  0.000004 -0.000067  0.000024  0.000054  0.000073
  1C   1f+2      -0.000001  0.000008 -0.000209 -0.000012 -0.000011  0.000027
  1C   1f-2      -0.000001  0.000002 -0.000016  0.000015  0.000016  0.000012
  1C   1f+3       0.000001 -0.000009  0.000083 -0.000044 -0.000095 -0.000128
  1C   1f-3       0.000000  0.000001  0.000051  0.000025  0.000037  0.000015
  2C   1s         0.000000 -0.000008 -0.006307 -0.000157 -0.000112  0.000010
  2C   2s        -0.000001  0.000004 -0.008408 -0.000213 -0.000223 -0.000073
  2C   3s         0.000039 -0.000202  0.001548  0.000224  0.001084  0.001346
  2C   4s        -0.000236  0.000783 -0.016916 -0.000068 -0.002963 -0.005226
  2C   5s         0.000207 -0.001956  0.010059 -0.001260  0.005720  0.040171
  2C   1pz        0.000001 -0.000009 -0.000029  0.000067  0.000133  0.000138
  2C   1px       -0.000004  0.000020 -0.000195 -0.000052 -0.000034  0.000013
  2C   1py       -0.000002  0.000018 -0.000323  0.000051  0.000201  0.000276
  2C   2pz       -0.000041 -0.000012 -0.000780 -0.001004 -0.001538 -0.003108
  2C   2px        0.000078 -0.000342  0.005298  0.000176 -0.000774 -0.001878
  2C   2py        0.000003 -0.000533  0.005906 -0.001615 -0.003942 -0.008400
  2C   3pz       -0.000019 -0.000114  0.002850 -0.000171  0.001007  0.007799
  2C   3px        0.000038  0.000246 -0.002348  0.000187 -0.001426 -0.013415
  2C   3py       -0.000005  0.000073  0.002038 -0.000041 -0.000111 -0.004121
  2C   1dz2      -0.000001  0.000001  0.000008  0.000005  0.000002 -0.000008
  2C   1dxz       0.000000  0.000007 -0.000133 -0.000028  0.000008  0.000055
  2C   1dyz      -0.000001  0.000007  0.000163 -0.000018 -0.000008 -0.000036
  2C   1dx2y2     0.000002 -0.000004 -0.000040  0.000033  0.000003 -0.000010
  2C   1dxy       0.000001 -0.000008 -0.000064  0.000002 -0.000001  0.000022
  2C   2dz2       0.000029 -0.000103  0.001766 -0.000235 -0.000130 -0.000528
  2C   2dxz      -0.000001 -0.000069  0.001197  0.000418  0.000352  0.000222
  2C   2dyz      -0.000036 -0.000060  0.001522 -0.000299 -0.000753 -0.001889
  2C   2dx2y2     0.000027  0.000004 -0.001033 -0.000150  0.000305  0.001085
  2C   2dxy      -0.000017  0.000205 -0.003554  0.000467  0.000470  0.001557
  2C   1f0        0.000003 -0.000001 -0.000218  0.000086  0.000183  0.000183
  2C   1f+1      -0.000001  0.000003 -0.000106  0.000051  0.000115  0.000113
  2C   1f-1      -0.000002  0.000008  0.000200  0.000031  0.000059  0.000082
  2C   1f+2       0.000002 -0.000002 -0.000595 -0.000013 -0.000026  0.000142
  2C   1f-2       0.000003 -0.000004 -0.000371 -0.000023 -0.000039 -0.000006
  2C   1f+3       0.000002 -0.000011 -0.000195 -0.000095 -0.000196 -0.000200
  2C   1f-3      -0.000001 -0.000000  0.000121 -0.000054 -0.000115 -0.000129
  3C   1s         0.000000 -0.000007 -0.467038 -0.001334 -0.004054 -0.004732
  3C   2s        -0.000001 -0.000006 -0.607966 -0.001575 -0.005236 -0.006290
  3C   3s        -0.000033  0.000165 -0.043889 -0.004369 -0.005400 -0.004461
  3C   4s         0.000310 -0.000680  0.028678  0.023302  0.056320  0.057156
  3C   5s        -0.000874  0.013923  0.055636  0.014813 -0.006112 -0.113097
  3C   1pz       -0.000003  0.000000 -0.000048 -0.000032 -0.000004  0.000032
  3C   1px       -0.000002  0.000023 -0.000386 -0.000233 -0.000018  0.000255
  3C   1py        0.000004  0.000037 -0.000627 -0.000383 -0.000035  0.000415
  3C   2pz        0.000054 -0.000023 -0.000403  0.000812  0.002062  0.001447
  3C   2px        0.000037 -0.000373 -0.002477  0.005358  0.014815  0.011504
  3C   2py       -0.000058 -0.000670 -0.004204  0.008931  0.024433  0.018671
  3C   3pz        0.000179 -0.000310  0.002151  0.000105  0.000348 -0.000963
  3C   3px       -0.000766  0.004502  0.022232  0.000823  0.002376 -0.005817
  3C   3py       -0.000697  0.006136  0.034961  0.001144  0.004014 -0.009830
  3C   1dz2      -0.000001 -0.000002  0.000596 -0.000048 -0.000053 -0.000275
  3C   1dxz       0.000001  0.000003  0.000844 -0.000027  0.000083  0.000098
  3C   1dyz      -0.000001 -0.000000 -0.000683  0.000031 -0.000022  0.000014
  3C   1dx2y2    -0.000002  0.000005  0.000334 -0.000037 -0.000063 -0.000225
  3C   1dxy       0.000000  0.000007 -0.000783  0.000067  0.000090  0.000439
  3C   2dz2       0.000010  0.000232 -0.001724 -0.002228 -0.004772 -0.002883
  3C   2dxz      -0.000035 -0.000015 -0.001021 -0.000083 -0.001246 -0.003073
  3C   2dyz       0.000068  0.000064  0.001368  0.000685  0.001807  0.002652
  3C   2dx2y2     0.000074  0.000113 -0.001389 -0.001699 -0.003287 -0.001735
  3C   2dxy       0.000026 -0.000390  0.002395  0.003421  0.007248  0.003965
  3C   1f0       -0.000005  0.000000  0.000045 -0.000034 -0.000003  0.000002
  3C   1f+1      -0.000004  0.000019  0.000128 -0.000089 -0.000005 -0.000000
  3C   1f-1      -0.000000  0.000027  0.000240 -0.000150 -0.000000 -0.000028
  3C   1f+2       0.000003 -0.000005 -0.000147  0.000025 -0.000020  0.000129
  3C   1f-2       0.000008  0.000002 -0.000135  0.000056 -0.000011  0.000067
  3C   1f+3       0.000004 -0.000043 -0.000384  0.000237  0.000001  0.000051
  3C   1f-3      -0.000011  0.000005  0.000020 -0.000013 -0.000001 -0.000002
  4C   1s         0.000000 -0.000008 -0.006234 -0.000158 -0.000135 -0.000041
  4C   2s        -0.000001  0.000003 -0.008316 -0.000212 -0.000248 -0.000136
  4C   3s         0.000031 -0.000183  0.001566  0.000228  0.001078  0.001251
  4C   4s        -0.000215  0.000836 -0.016459 -0.000147 -0.003416 -0.004732
  4C   5s        -0.000676  0.000388  0.011957 -0.001520  0.005978  0.040404
  4C   1pz       -0.000002  0.000008 -0.000022 -0.000064 -0.000113 -0.000106
  4C   1px        0.000002 -0.000001 -0.000203  0.000076  0.000199  0.000249
  4C   1py        0.000000  0.000019 -0.000322 -0.000017  0.000067  0.000149
  4C   2pz        0.000069 -0.000126  0.001512  0.000879  0.001294  0.001998
  4C   2px       -0.000089 -0.000090  0.003267 -0.001698 -0.003633 -0.006918
  4C   2py       -0.000006 -0.000394  0.007346 -0.000714 -0.002636 -0.005889
  4C   3pz        0.000181 -0.000204 -0.003062  0.000145 -0.001086 -0.009247
  4C   3px       -0.000035  0.000033  0.003176  0.000057  0.000444  0.003074
  4C   3py        0.000262 -0.000396 -0.001297  0.000368 -0.001411 -0.012947
  4C   1dz2       0.000001  0.000002 -0.000009  0.000011  0.000006 -0.000003
  4C   1dxz       0.000002 -0.000006 -0.000207  0.000001  0.000014  0.000056
  4C   1dyz       0.000002 -0.000008  0.000035  0.000032 -0.000000 -0.000026
  4C   1dx2y2    -0.000002  0.000012  0.000101 -0.000021 -0.000006 -0.000017
  4C   1dxy      -0.000001  0.000008  0.000018 -0.000032 -0.000010  0.000011
  4C   2dz2      -0.000000 -0.000049  0.001336 -0.000213 -0.000084 -0.000230
  4C   2dxz       0.000019  0.000003 -0.001019  0.000521  0.000932  0.001676
  4C   2dyz      -0.000002  0.000120 -0.002450 -0.000117  0.000074  0.000937
  4C   2dx2y2    -0.000019 -0.000140  0.003364 -0.000353 -0.000710 -0.001965
  4C   2dxy      -0.000020  0.000004 -0.001212  0.000362  0.000042 -0.000096
  4C   1f0       -0.000000 -0.000000  0.000242 -0.000065 -0.000141 -0.000131
  4C   1f+1      -0.000000  0.000004  0.000074  0.000010  0.000015  0.000079
  4C   1f-1       0.000001  0.000007  0.000017  0.000082  0.000172  0.000177
  4C   1f+2       0.000001 -0.000000 -0.000633 -0.000018 -0.000019  0.000087
  4C   1f-2       0.000002 -0.000003 -0.000296 -0.000023 -0.000052  0.000055
  4C   1f+3       0.000003 -0.000011 -0.000236 -0.000080 -0.000163 -0.000185
  4C   1f-3       0.000002 -0.000001 -0.000189  0.000069  0.000135  0.000185
  5C   1s         0.000000 -0.000006 -0.000012  0.000001  0.000020  0.000176
  5C   2s        -0.000001  0.000003 -0.000023  0.000001  0.000022  0.000199
  5C   3s        -0.000003 -0.000012 -0.001179  0.000204  0.000475  0.001028
  5C   4s         0.000069 -0.000490  0.010865 -0.001400 -0.002818 -0.006161
  5C   5s         0.000303  0.000877 -0.002875 -0.000537 -0.003033 -0.033013
  5C   1pz       -0.000000  0.000006 -0.000011 -0.000012 -0.000031 -0.000043
  5C   1px        0.000000 -0.000003 -0.000145  0.000033  0.000085  0.000170
  5C   1py       -0.000001  0.000003 -0.000223  0.000024  0.000059  0.000156
  5C   2pz       -0.000021  0.000034 -0.000347 -0.000165 -0.000146  0.000090
  5C   2px        0.000019 -0.000241  0.005932 -0.000509 -0.001153 -0.003238
  5C   2py       -0.000001 -0.000234  0.007593 -0.001026 -0.001868 -0.004322
  5C   3pz        0.000009 -0.000538  0.000068  0.000633  0.000200  0.006095
  5C   3px        0.000034  0.000680  0.000552 -0.000671 -0.000708 -0.010666
  5C   3py        0.000077 -0.000081  0.000889  0.000261 -0.000615 -0.003459
  5C   1dz2       0.000000  0.000006 -0.000052  0.000009  0.000027  0.000054
  5C   1dxz      -0.000001  0.000008 -0.000060 -0.000027 -0.000041 -0.000049
  5C   1dyz       0.000000 -0.000004  0.000027 -0.000025 -0.000062 -0.000072
  5C   1dx2y2     0.000000 -0.000001 -0.000012  0.000044  0.000091  0.000119
  5C   1dxy       0.000001 -0.000007  0.000080 -0.000005 -0.000018 -0.000059
  5C   2dz2      -0.000001  0.000042 -0.001468  0.000228  0.000392  0.000835
  5C   2dxz       0.000000 -0.000021  0.000144  0.000013  0.000148  0.000083
  5C   2dyz       0.000006  0.000024 -0.000925  0.000011  0.000232  0.000497
  5C   2dx2y2    -0.000011  0.000012 -0.000152  0.000108 -0.000067  0.000003
  5C   2dxy      -0.000004 -0.000090  0.002744 -0.000374 -0.000743 -0.001563
  5C   1f0        0.000002 -0.000004  0.000014  0.000010  0.000016  0.000002
  5C   1f+1       0.000000  0.000003 -0.000092  0.000002  0.000017  0.000040
  5C   1f-1       0.000000  0.000006 -0.000056  0.000033  0.000067  0.000097
  5C   1f+2       0.000001  0.000003 -0.000140  0.000019  0.000028  0.000052
  5C   1f-2      -0.000000  0.000001 -0.000122 -0.000027 -0.000041 -0.000022
  5C   1f+3       0.000001 -0.000005  0.000081 -0.000043 -0.000091 -0.000128
  5C   1f-3      -0.000001  0.000009 -0.000090 -0.000020 -0.000021  0.000011
  6H   1s         0.000002 -0.000017  0.000082 -0.000007 -0.000040 -0.000045
  6H   2s         0.000010 -0.000122  0.000838  0.000092  0.000036  0.000434
  6H   3s        -0.000024  0.000146  0.000387  0.000080  0.000325  0.001168
  6H   1pz        0.000000  0.000001  0.000011  0.000000 -0.000001  0.000004
  6H   1px        0.000002 -0.000013  0.000064  0.000010  0.000006  0.000044
  6H   1py        0.000002 -0.000019  0.000108  0.000016  0.000007  0.000067
  7H   1s         0.000002 -0.000016  0.000087  0.000004  0.000005  0.000017
  7H   2s        -0.000003  0.000020  0.000765  0.000038  0.000306 -0.000345
  7H   3s        -0.000051  0.000469  0.000923 -0.000458 -0.000040 -0.002531
  7H   1pz       -0.000000  0.000002  0.000114  0.000014  0.000040 -0.000026
  7H   1px        0.000001 -0.000006  0.000030 -0.000020 -0.000048 -0.000035
  7H   1py        0.000000 -0.000007  0.000253 -0.000001  0.000008 -0.000096
  8H   1s         0.000001 -0.000016 -0.000046 -0.000030 -0.000095 -0.000136
  8H   2s        -0.000013 -0.000031  0.002253  0.000016  0.000497  0.000880
  8H   3s        -0.000043  0.000125 -0.000276 -0.000033  0.000167  0.002933
  8H   1pz        0.000001 -0.000001  0.000343 -0.000057  0.000034  0.000038
  8H   1px        0.000004  0.000000 -0.000159  0.000058 -0.000011 -0.000071
  8H   1py        0.000001 -0.000007  0.000417 -0.000025  0.000048 -0.000028
  9H   1s         0.000003 -0.000023 -0.000053 -0.000028 -0.000096 -0.000136
  9H   2s        -0.000024 -0.000005  0.002241 -0.000021  0.000533  0.000842
  9H   3s        -0.000069  0.000181 -0.000229  0.000001  0.000149  0.003013
  9H   1pz        0.000002  0.000005 -0.000303  0.000060 -0.000027 -0.000037
  9H   1px        0.000001 -0.000001  0.000473 -0.000055  0.000042 -0.000002
  9H   1py        0.000000  0.000001  0.000092  0.000036  0.000007 -0.000072
 10H   1s         0.000002 -0.000015  0.000090  0.000003  0.000002  0.000017
 10H   2s         0.000004  0.000006  0.000766  0.000039  0.000288 -0.000349
 10H   3s        -0.000032  0.000419  0.000864 -0.000443 -0.000031 -0.002561
 10H   1pz       -0.000001  0.000002 -0.000080 -0.000017 -0.000041  0.000012
 10H   1px        0.000001 -0.000005  0.000218  0.000009  0.000029 -0.000072
 10H   1py       -0.000001 -0.000005  0.000154 -0.000018 -0.000036 -0.000078
 11C   1s         0.000000  0.000022 -0.006303  0.101622  0.282404  0.357787
 11C   2s        -0.000001 -0.000024 -0.008119  0.132439  0.367096  0.465511
 11C   3s         0.000061  0.000568 -0.007946  0.007604  0.046329  0.044817
 11C   4s        -0.001556  0.002234  0.093172  0.049472 -0.094741 -0.159793
 11C   5s         0.000095 -0.010424  0.028400  0.079680 -0.039592 -0.022283
 11C   1pz       -0.000007  0.000011  0.000030 -0.000043  0.000068 -0.000009
 11C   1px       -0.000010  0.000082  0.000201 -0.000298  0.000392 -0.000164
 11C   1py       -0.000008  0.000147  0.000336 -0.000490  0.000664 -0.000248
 11C   2pz        0.000178 -0.000038  0.003798  0.004030  0.000361 -0.002120
 11C   2px       -0.000238 -0.000215  0.025769  0.026608  0.004004 -0.013242
 11C   2py       -0.000693 -0.000498  0.042782  0.044250  0.006285 -0.022251
 11C   3pz       -0.000329  0.001709  0.007217  0.003085 -0.000647 -0.005458
 11C   3px       -0.000302  0.005156  0.048944  0.023386 -0.004207 -0.041590
 11C   3py       -0.001014  0.009305  0.081222  0.038684 -0.007185 -0.068016
 11C   1dz2       0.000006 -0.000036 -0.000010 -0.000083 -0.000601 -0.001367
 11C   1dxz      -0.000012 -0.000007 -0.000018  0.000010  0.000083  0.000212
[...]
<pf|pf>:   74305 b   72748 skpd ( 97.9%)    0.187 s ( 0.120 ms/b)
<pf|dd>:   83160 b   81392 skpd ( 97.9%)    0.221 s ( 0.125 ms/b)
<pf|df>:   75460 b   73939 skpd ( 98.0%)    0.324 s ( 0.213 ms/b)
<pf|ff>:   20405 b   19893 skpd ( 97.5%)    0.190 s ( 0.370 ms/b)
<dd|dd>:   23436 b   22861 skpd ( 97.5%)    0.083 s ( 0.144 ms/b)
<dd|df>:   42336 b   41438 skpd ( 97.9%)    0.206 s ( 0.230 ms/b)
<dd|ff>:   11448 b   11147 skpd ( 97.4%)    0.123 s ( 0.407 ms/b)
<df|df>:   19306 b   18896 skpd ( 97.9%)    0.159 s ( 0.387 ms/b)
<df|ff>:   10388 b   10140 skpd ( 97.6%)    0.173 s ( 0.699 ms/b)
<ff|ff>:    1431 b    1392 skpd ( 97.3%)    0.053 s ( 1.364 ms/b)
done
Exchange-Correlation gradient            ... done
                 ---------------------------
                 EXCITED STATE GRADIENT DONE
                 ---------------------------


------------------
CARTESIAN GRADIENT
------------------

   1   C   :    0.009333326    0.015254270    0.001270686
   2   C   :   -0.016033203   -0.010390307    0.006318848
   3   C   :   -0.002467166    0.022075548    0.013181954
   4   C   :   -0.019119998   -0.031894320   -0.002760620
   5   C   :    0.021411788    0.009483859   -0.010372657
   6   C   :   -0.001244122   -0.017953715   -0.008756086
   7   H   :   -0.000119641   -0.000164117   -0.000040176
   8   H   :   -0.000384411   -0.000181561    0.000439060
   9   H   :    0.000058717    0.000705541    0.000174890
  10   H   :    0.000584329    0.000290671   -0.000228049
  11   H   :   -0.000050259   -0.000462848   -0.000377403
  12   C   :    0.034208043    0.056201195    0.005425771
  13   C   :   -0.037114113   -0.060447083   -0.006472388
  14   C   :    0.036321319    0.060105744    0.003667005
  15   C   :   -0.031261246   -0.054372125    0.008386149
  16   C   :    0.012359358    0.033797656   -0.023366929
  17   H   :   -0.001998547   -0.007557491    0.000651567
  18   H   :   -0.003426798   -0.006865225    0.005734633
  19   O   :   -0.008821252   -0.013069373   -0.002842867
  20   H   :    0.007731339    0.005979339    0.009900850

Difference to translation invariance:
           :   -0.0000325378    0.0005356590   -0.0000657665

Norm of the cartesian gradient     ...    0.1570593534
RMS gradient                       ...    0.0202762753
MAX gradient                       ...    0.0604470825

-------
TIMINGS
-------

Total TD-DFT gradient time         ...      164.634 sec

Fock matrix formation       ....      17.159 sec  ( 10.4%)
  Coulomb formation         ....      16.853 sec  ( 98.2% of F)
  XC integration            ....       0.306 sec  (  1.8% of F)
Z-vector equation           ....     116.294 sec  ( 70.6%)
One electron gradient       ....       0.745 sec  (  0.5%)
Prescreening matrices       ....       1.071 sec  (  0.7%)
Two electron gradient       ....      22.999 sec  ( 14.0%)
XC gradient                 ....       5.790 sec  (  3.5%)

		************************************************************
		*      Energy Gradient Calculation For State    9 *
		************************************************************


           ************************************************************
           *        Program running with 28 parallel MPI-processes    *
           *              working on a common directory               *
           ************************************************************
------------------------------------------------------------------------------
                         ORCA SCF GRADIENT CALCULATION
------------------------------------------------------------------------------


-------------------
TD-DFT GRADIENT
-------------------

Reference wavefunction             ... RHF
State of interest                  ... 9
Basis dimension                    ... 420
DFT-XC contribution needed         ... YES
RI-approximation                   ... OFF
CIS-vectors being read from        ... p2r1.cis

 => Number of Vectors found: 20
 => Orbital Window: 12...40 -> 41...419

Reading the RPA file                     ... done
Norm of the RPA vector                   ... 1.000000000
Making the RPA (pseudo)densities         ... done
Making operators G(D) and Q(T)           ... done
Transforming the Fock operators          ... done
Making the frozen-core relaxed density   ... done
Constructing the G(H) operator           ... done
Transforming the G(H) operator           ... done
Calculating the RPA Lagrangian           ... done
Solving the Z-vector equations           ... done
Finalizing the relaxed density           ... done
Storing the relaxed density              ... done
Constructing the G(Z) operator           ... done
Transforming the G(Z) operator           ... done
Making the W-matrix                      ... done
Finalizing the W-matrix                  ... done
Transforming the W-matrix                ... done
Nuclear repulsion gradient               ... done
One-Electron gradient                    ... done
Prescreening matrices                    ... done
Two-Electron gradient (4-center)         ... <ss|ss>: 2953665 b 2890806 skpd ( 97.9%)    0.077 s ( 0.001 ms/b)
<ss|sp>: 6633900 b 6488693 skpd ( 97.8%)    0.302 s ( 0.002 ms/b)
<ss|sd>: 3443310 b 3373623 skpd ( 98.0%)    0.200 s ( 0.003 ms/b)
<ss|sf>: 1635390 b 1603946 skpd ( 98.1%)    0.138 s ( 0.004 ms/b)
<ss|pp>: 1905120 b 1861530 skpd ( 97.7%)    0.215 s ( 0.005 ms/b)
<ss|pd>: 1941570 b 1899656 skpd ( 97.8%)    0.313 s ( 0.007 ms/b)
<ss|pf>:  935550 b  915993 skpd ( 97.9%)    0.184 s ( 0.009 ms/b)
<ss|dd>:  524880 b  513251 skpd ( 97.8%)    0.107 s ( 0.009 ms/b)
<ss|df>:  476280 b  466580 skpd ( 98.0%)    0.139 s ( 0.014 ms/b)
<ss|ff>:  128790 b  125543 skpd ( 97.5%)    0.075 s ( 0.023 ms/b)
<sp|sp>: 3727815 b 3645031 skpd ( 97.8%)    0.406 s ( 0.005 ms/b)
<sp|sd>: 3868410 b 3787610 skpd ( 97.9%)    0.555 s ( 0.007 ms/b)
<sp|sf>: 1837290 b 1800330 skpd ( 98.0%)    0.420 s ( 0.011 ms/b)
<sp|pp>: 2140320 b 2090502 skpd ( 97.7%)    0.654 s ( 0.013 ms/b)
<sp|pd>: 2181270 b 2132878 skpd ( 97.8%)    0.971 s ( 0.020 ms/b)
<sp|pf>: 1051050 b 1028079 skpd ( 97.8%)    0.581 s ( 0.025 ms/b)
<sp|dd>:  589680 b  576014 skpd ( 97.7%)    0.344 s ( 0.025 ms/b)
<sp|df>:  535080 b  523603 skpd ( 97.9%)    0.456 s ( 0.040 ms/b)
<sp|ff>:  144690 b  140853 skpd ( 97.3%)    0.255 s ( 0.066 ms/b)
<sd|sd>: 1004653 b  985085 skpd ( 98.1%)    0.239 s ( 0.012 ms/b)
<sd|sf>:  953641 b  936110 skpd ( 98.2%)    0.340 s ( 0.019 ms/b)
<sd|pp>: 1110928 b 1086358 skpd ( 97.8%)    0.604 s ( 0.025 ms/b)
<sd|pd>: 1132183 b 1108660 skpd ( 97.9%)    0.818 s ( 0.035 ms/b)
<sd|pf>:  545545 b  534609 skpd ( 98.0%)    0.490 s ( 0.045 ms/b)
<sd|dd>:  306072 b  299499 skpd ( 97.9%)    0.308 s ( 0.047 ms/b)
<sd|df>:  277732 b  272154 skpd ( 98.0%)    0.409 s ( 0.073 ms/b)
<sd|ff>:   75101 b   73223 skpd ( 97.5%)    0.232 s ( 0.124 ms/b)
<sf|sf>:  226801 b  223066 skpd ( 98.4%)    0.126 s ( 0.034 ms/b)
<sf|pp>:  527632 b  516391 skpd ( 97.9%)    0.478 s ( 0.043 ms/b)
<sf|pd>:  537727 b  527296 skpd ( 98.1%)    0.632 s ( 0.061 ms/b)
<sf|pf>:  259105 b  254397 skpd ( 98.2%)    0.386 s ( 0.082 ms/b)
<sf|dd>:  145368 b  142522 skpd ( 98.0%)    0.222 s ( 0.078 ms/b)
<sf|df>:  131908 b  129497 skpd ( 98.2%)    0.307 s ( 0.127 ms/b)
<sf|ff>:   35669 b   34861 skpd ( 97.7%)    0.191 s ( 0.236 ms/b)
<pp|pp>:  307720 b  300091 skpd ( 97.5%)    0.315 s ( 0.041 ms/b)
<pp|pd>:  626416 b  611861 skpd ( 97.7%)    0.873 s ( 0.060 ms/b)
<pp|pf>:  301840 b  294810 skpd ( 97.7%)    0.560 s ( 0.080 ms/b)
<pp|dd>:  169344 b  165165 skpd ( 97.5%)    0.335 s ( 0.080 ms/b)
<pp|df>:  153664 b  150117 skpd ( 97.7%)    0.451 s ( 0.127 ms/b)
<pp|ff>:   41552 b   40372 skpd ( 97.2%)    0.267 s ( 0.226 ms/b)
<pd|pd>:  319600 b  312410 skpd ( 97.8%)    0.679 s ( 0.094 ms/b)
<pd|pf>:  307615 b  300961 skpd ( 97.8%)    0.834 s ( 0.125 ms/b)
<pd|dd>:  172584 b  168578 skpd ( 97.7%)    0.548 s ( 0.137 ms/b)
<pd|df>:  156604 b  153226 skpd ( 97.8%)    0.658 s ( 0.195 ms/b)
<pd|ff>:   42347 b   41226 skpd ( 97.4%)    0.344 s ( 0.306 ms/b)
<pf|pf>:   74305 b   72746 skpd ( 97.9%)    0.277 s ( 0.178 ms/b)
<pf|dd>:   83160 b   81388 skpd ( 97.9%)    0.324 s ( 0.183 ms/b)
<pf|df>:   75460 b   73938 skpd ( 98.0%)    0.467 s ( 0.307 ms/b)
<pf|ff>:   20405 b   19895 skpd ( 97.5%)    0.278 s ( 0.546 ms/b)
<dd|dd>:   23436 b   22862 skpd ( 97.6%)    0.121 s ( 0.212 ms/b)
<dd|df>:   42336 b   41437 skpd ( 97.9%)    0.308 s ( 0.342 ms/b)
<dd|ff>:   11448 b   11147 skpd ( 97.4%)    0.183 s ( 0.607 ms/b)
<df|df>:   19306 b   18896 skpd ( 97.9%)    0.235 s ( 0.573 ms/b)
<df|ff>:   10388 b   10141 skpd ( 97.6%)    0.247 s ( 0.999 ms/b)
<ff|ff>:    1431 b    1392 skpd ( 97.3%)    0.077 s ( 1.967 ms/b)
done
Exchange-Correlation gradient            ... done
                 ---------------------------
                 EXCITED STATE GRADIENT DONE
                 ---------------------------


------------------
CARTESIAN GRADIENT
------------------

   1   C   :    0.011331583    0.018525063    0.001559220
   2   C   :   -0.020251240   -0.012296389    0.009910106
   3   C   :   -0.002343942    0.023526510    0.015868229
   4   C   :   -0.014271655   -0.023737405   -0.002235503
   5   C   :    0.022870984    0.010441969   -0.012744107
   6   C   :   -0.000857164   -0.022152670   -0.012924859
   7   H   :   -0.000207905   -0.000329233   -0.000035030
   8   H   :   -0.000913653   -0.000067874   -0.000316995
   9   H   :    0.000114666    0.000899079    0.000079420
  10   H   :    0.000785386    0.000377896   -0.000042264
  11   H   :    0.000226303   -0.000961818    0.000330034
  12   C   :    0.028127077    0.046499077    0.004334908
  13   C   :   -0.033238422   -0.056195951   -0.005094565
  14   C   :    0.037415996    0.068043885    0.003485824
  15   C   :   -0.039977945   -0.059066545    0.000168005
  16   C   :    0.019342977    0.023737629   -0.010841338
  17   H   :   -0.000550468   -0.003589870   -0.000994822
  18   H   :   -0.003077944   -0.001442363    0.004211454
  19   O   :   -0.009290089   -0.014957696   -0.001467674
  20   H   :    0.004685841    0.003181505    0.006715732

Difference to translation invariance:
           :   -0.0000796146    0.0004347997   -0.0000342263

Norm of the cartesian gradient     ...    0.1550848723
RMS gradient                       ...    0.0200213709
MAX gradient                       ...    0.0680438852

-------
TIMINGS
-------

Total TD-DFT gradient time         ...      167.050 sec

Fock matrix formation       ....      16.882 sec  ( 10.1%)
  Coulomb formation         ....      16.580 sec  ( 98.2% of F)
  XC integration            ....       0.303 sec  (  1.8% of F)
Z-vector equation           ....     118.994 sec  ( 71.2%)
One electron gradient       ....       1.353 sec  (  0.8%)
Prescreening matrices       ....       2.107 sec  (  1.3%)
Two electron gradient       ....      21.129 sec  ( 12.6%)
XC gradient                 ....       5.934 sec  (  3.6%)

		************************************************************
		*      Energy Gradient Calculation For State   10 *
		************************************************************


           ************************************************************
           *        Program running with 28 parallel MPI-processes    *
           *              working on a common directory               *
           ************************************************************
------------------------------------------------------------------------------
                         ORCA SCF GRADIENT CALCULATION
------------------------------------------------------------------------------


-------------------
TD-DFT GRADIENT
-------------------

Reference wavefunction             ... RHF
State of interest                  ... 10
Basis dimension                    ... 420
DFT-XC contribution needed         ... YES
RI-approximation                   ... OFF
CIS-vectors being read from        ... p2r1.cis

 => Number of Vectors found: 20
 => Orbital Window: 12...40 -> 41...419

Reading the RPA file                     ... done
Norm of the RPA vector                   ... 1.000000000
Making the RPA (pseudo)densities         ... done
Making operators G(D) and Q(T)           ... done
Transforming the Fock operators          ... done
Making the frozen-core relaxed density   ... done
Constructing the G(H) operator           ... done
Transforming the G(H) operator           ... done
Calculating the RPA Lagrangian           ... done
Solving the Z-vector equations           ... done
Finalizing the relaxed density           ... done
Storing the relaxed density              ... done
Constructing the G(Z) operator           ... done
Transforming the G(Z) operator           ... done
Making the W-matrix                      ... done
Finalizing the W-matrix                  ... done
Transforming the W-matrix                ... done
Nuclear repulsion gradient               ... done
One-Electron gradient                    ... done
Prescreening matrices                    ... done
Two-Electron gradient (4-center)         ... <ss|ss>: 2953665 b 2890639 skpd ( 97.9%)    0.078 s ( 0.001 ms/b)
<ss|sp>: 6633900 b 6488247 skpd ( 97.8%)    0.304 s ( 0.002 ms/b)
<ss|sd>: 3443310 b 3373309 skpd ( 98.0%)    0.201 s ( 0.003 ms/b)
<ss|sf>: 1635390 b 1603862 skpd ( 98.1%)    0.139 s ( 0.004 ms/b)
<ss|pp>: 1905120 b 1861351 skpd ( 97.7%)    0.218 s ( 0.005 ms/b)
<ss|pd>: 1941570 b 1899476 skpd ( 97.8%)    0.315 s ( 0.007 ms/b)
<ss|pf>:  935550 b  916030 skpd ( 97.9%)    0.183 s ( 0.009 ms/b)
<ss|dd>:  524880 b  513224 skpd ( 97.8%)    0.107 s ( 0.009 ms/b)
<ss|df>:  476280 b  466576 skpd ( 98.0%)    0.139 s ( 0.014 ms/b)
<ss|ff>:  128790 b  125541 skpd ( 97.5%)    0.075 s ( 0.023 ms/b)
<sp|sp>: 3727815 b 3644766 skpd ( 97.8%)    0.410 s ( 0.005 ms/b)
<sp|sd>: 3868410 b 3787222 skpd ( 97.9%)    0.558 s ( 0.007 ms/b)
<sp|sf>: 1837290 b 1800188 skpd ( 98.0%)    0.419 s ( 0.011 ms/b)
<sp|pp>: 2140320 b 2090284 skpd ( 97.7%)    0.660 s ( 0.013 ms/b)
<sp|pd>: 2181270 b 2132642 skpd ( 97.8%)    0.977 s ( 0.020 ms/b)
<sp|pf>: 1051050 b 1028154 skpd ( 97.8%)    0.583 s ( 0.025 ms/b)
<sp|dd>:  589680 b  575986 skpd ( 97.7%)    0.350 s ( 0.026 ms/b)
<sp|df>:  535080 b  523589 skpd ( 97.9%)    0.465 s ( 0.040 ms/b)
<sp|ff>:  144690 b  140848 skpd ( 97.3%)    0.258 s ( 0.067 ms/b)
<sd|sd>: 1004653 b  984999 skpd ( 98.0%)    0.244 s ( 0.012 ms/b)
<sd|sf>:  953641 b  936052 skpd ( 98.2%)    0.343 s ( 0.020 ms/b)
<sd|pp>: 1110928 b 1086198 skpd ( 97.8%)    0.604 s ( 0.024 ms/b)
<sd|pd>: 1132183 b 1108516 skpd ( 97.9%)    0.825 s ( 0.035 ms/b)
<sd|pf>:  545545 b  534662 skpd ( 98.0%)    0.495 s ( 0.045 ms/b)
<sd|dd>:  306072 b  299486 skpd ( 97.8%)    0.308 s ( 0.047 ms/b)
<sd|df>:  277732 b  272152 skpd ( 98.0%)    0.412 s ( 0.074 ms/b)
<sd|ff>:   75101 b   73218 skpd ( 97.5%)    0.228 s ( 0.121 ms/b)
<sf|sf>:  226801 b  223044 skpd ( 98.3%)    0.126 s ( 0.034 ms/b)
<sf|pp>:  527632 b  516288 skpd ( 97.9%)    0.481 s ( 0.042 ms/b)
<sf|pd>:  537727 b  527207 skpd ( 98.0%)    0.636 s ( 0.060 ms/b)
<sf|pf>:  259105 b  254414 skpd ( 98.2%)    0.386 s ( 0.082 ms/b)
<sf|dd>:  145368 b  142511 skpd ( 98.0%)    0.221 s ( 0.077 ms/b)
<sf|df>:  131908 b  129499 skpd ( 98.2%)    0.305 s ( 0.127 ms/b)
<sf|ff>:   35669 b   34858 skpd ( 97.7%)    0.190 s ( 0.234 ms/b)
<pp|pp>:  307720 b  300070 skpd ( 97.5%)    0.316 s ( 0.041 ms/b)
<pp|pd>:  626416 b  611788 skpd ( 97.7%)    0.878 s ( 0.060 ms/b)
<pp|pf>:  301840 b  294821 skpd ( 97.7%)    0.561 s ( 0.080 ms/b)
<pp|dd>:  169344 b  165152 skpd ( 97.5%)    0.337 s ( 0.080 ms/b)
<pp|df>:  153664 b  150103 skpd ( 97.7%)    0.456 s ( 0.128 ms/b)
<pp|ff>:   41552 b   40365 skpd ( 97.1%)    0.269 s ( 0.227 ms/b)
<pd|pd>:  319600 b  312384 skpd ( 97.7%)    0.687 s ( 0.095 ms/b)
<pd|pf>:  307615 b  300980 skpd ( 97.8%)    0.833 s ( 0.126 ms/b)
<pd|dd>:  172584 b  168559 skpd ( 97.7%)    0.546 s ( 0.136 ms/b)
<pd|df>:  156604 b  153214 skpd ( 97.8%)    0.739 s ( 0.218 ms/b)
<pd|ff>:   42347 b   41222 skpd ( 97.3%)    0.424 s ( 0.377 ms/b)
<pf|pf>:   74305 b   72746 skpd ( 97.9%)    0.343 s ( 0.220 ms/b)
<pf|dd>:   83160 b   81386 skpd ( 97.9%)    0.406 s ( 0.229 ms/b)
<pf|df>:   75460 b   73934 skpd ( 98.0%)    0.577 s ( 0.378 ms/b)
<pf|ff>:   20405 b   19891 skpd ( 97.5%)    0.345 s ( 0.671 ms/b)
<dd|dd>:   23436 b   22857 skpd ( 97.5%)    0.155 s ( 0.268 ms/b)
<dd|df>:   42336 b   41431 skpd ( 97.9%)    0.383 s ( 0.423 ms/b)
<dd|ff>:   11448 b   11143 skpd ( 97.3%)    0.224 s ( 0.735 ms/b)
<df|df>:   19306 b   18895 skpd ( 97.9%)    0.236 s ( 0.574 ms/b)
<df|ff>:   10388 b   10140 skpd ( 97.6%)    0.248 s ( 0.998 ms/b)
<ff|ff>:    1431 b    1392 skpd ( 97.3%)    0.076 s ( 1.952 ms/b)
done
Exchange-Correlation gradient            ... done
                 ---------------------------
                 EXCITED STATE GRADIENT DONE
                 ---------------------------


------------------
CARTESIAN GRADIENT
------------------

   1   C   :    0.010376935    0.017346447    0.001639723
   2   C   :   -0.018623042   -0.010436828    0.007255881
   3   C   :   -0.002834231    0.017831766    0.014192817
   4   C   :   -0.005686944   -0.009730338   -0.001163506
   5   C   :    0.017631996    0.007085946   -0.011685040
   6   C   :   -0.000014567   -0.020338012   -0.010076334
   7   H   :   -0.000274265   -0.000415437   -0.000041294
   8   H   :   -0.000871715   -0.000594556    0.000376014
   9   H   :   -0.000047776    0.001238928    0.000625175
  10   H   :    0.001169732    0.000465410   -0.000601122
  11   H   :   -0.000214401   -0.001117705   -0.000424140
  12   C   :    0.021785626    0.035153466    0.003157264
  13   C   :   -0.033192748   -0.054772695   -0.004509102
  14   C   :    0.048919148    0.085984091    0.004298359
  15   C   :   -0.048063392   -0.076164540   -0.000024087
  16   C   :    0.011299508    0.022033484   -0.007659348
  17   H   :   -0.000005097   -0.004463898   -0.001548521
  18   H   :   -0.001534584    0.001940517    0.001791538
  19   O   :   -0.002149650   -0.012854765   -0.003063725
  20   H   :    0.002293510    0.002302526    0.007425505

Difference to translation invariance:
           :   -0.0000359567    0.0004938082   -0.0000339435

Norm of the cartesian gradient     ...    0.1652331647
RMS gradient                       ...    0.0213315098
MAX gradient                       ...    0.0859840911

-------
TIMINGS
-------

Total TD-DFT gradient time         ...      170.149 sec

Fock matrix formation       ....      16.938 sec  ( 10.0%)
  Coulomb formation         ....      16.630 sec  ( 98.2% of F)
  XC integration            ....       0.308 sec  (  1.8% of F)
Z-vector equation           ....     121.684 sec  ( 71.5%)
One electron gradient       ....       1.346 sec  (  0.8%)
Prescreening matrices       ....       2.102 sec  (  1.2%)
Two electron gradient       ....      21.609 sec  ( 12.7%)
XC gradient                 ....       5.815 sec  (  3.4%)

Mass weighting the hessian        ... done
Symmetrizing the hessian          ... done
Calculating normal modes          ... done


-----------------------------------------------
ENTERING SURFACE PARAMETERS CALCULATION
-----------------------------------------------

Mass weighting the cartesian gradient                                ... done
Calculating energy gradient along normal modes at the input geometry ... done


Surface parameters are stored in the file :     p2r1.rrhess
Prepared input file for orca_asa run      :    p2r1.asa.inp

Timings for individual modules:

Sum of individual times         ...     3701.323 sec (=  61.689 min)
GTO integral calculation        ...        1.128 sec (=   0.019 min)   0.0 %
SCF iterations                  ...       65.263 sec (=   1.088 min)   1.8 %
CIS module                      ...     1958.167 sec (=  32.636 min)  52.9 %
SCF Gradient evaluation         ...     1676.765 sec (=  27.946 min)  45.3 %
                             ****ORCA TERMINATED NORMALLY****
TOTAL RUN TIME: 0 days 1 hours 1 minutes 42 seconds 134 msec
