
                                 *****************
                                 * O   R   C   A *
                                 *****************

           --- An Ab Initio, DFT and Semiempirical electronic structure package ---

                  #######################################################
                  #                        -***-                        #
                  #          Department of theory and spectroscopy      #
                  #               Directorship: Frank Neese             #
                  #        Max Planck Institute fuer Kohlenforschung    #
                  #                Kaiser Wilhelm Platz 1               #
                  #                 D-45470 Muelheim/Ruhr               #
                  #                      Germany                        #
                  #                                                     #
                  #                  All rights reserved                #
                  #                        -***-                        #
                  #######################################################


                         Program Version 4.2.1 -  RELEASE  -


 With contributions from (in alphabetic order):
   Daniel Aravena         : Magnetic Suceptibility
   Michael Atanasov       : Ab Initio Ligand Field Theory (pilot matlab implementation)
   Alexander A. Auer      : GIAO ZORA, VPT2
   Ute Becker             : Parallelization
   Giovanni Bistoni       : ED, misc. LED, open-shell LED, HFLD
   Martin Brehm           : Molecular dynamics
   Dmytro Bykov           : SCF Hessian
   Vijay G. Chilkuri      : MRCI spin determinant printing, contributions to CSF-ICE
   Dipayan Datta          : RHF DLPNO-CCSD density
   Achintya Kumar Dutta   : EOM-CC, STEOM-CC
   Dmitry Ganyushin       : Spin-Orbit,Spin-Spin,Magnetic field MRCI
   Miquel Garcia          : C-PCM Hessian, Gaussian charge scheme
   Yang Guo               : DLPNO-NEVPT2, CIM, IAO-localization
   Andreas Hansen         : Spin unrestricted coupled pair/coupled cluster methods
   Benjamin Helmich-Paris : CASSCF linear response (MC-RPA)
   Lee Huntington         : MR-EOM, pCC
   Robert Izsak           : Overlap fitted RIJCOSX, COSX-SCS-MP3, EOM
   Christian Kollmar      : KDIIS, OOCD, Brueckner-CCSD(T), CCSD density
   Simone Kossmann        : Meta GGA functionals, TD-DFT gradient, OOMP2, MP2 Hessian
   Martin Krupicka        : AUTO-CI
   Lucas Lang             : DCDCAS
   Dagmar Lenk            : GEPOL surface, SMD
   Dimitrios Liakos       : Extrapolation schemes; Compound Job, initial MDCI parallelization
   Dimitrios Manganas     : Further ROCIS development; embedding schemes
   Dimitrios Pantazis     : SARC Basis sets
   Taras Petrenko         : DFT Hessian,TD-DFT gradient, ASA, ECA, R-Raman, ABS, FL, XAS/XES, NRVS
   Peter Pinski           : DLPNO-MP2, DLPNO-MP2 Gradient
   Christoph Reimann      : Effective Core Potentials
   Marius Retegan         : Local ZFS, SOC
   Christoph Riplinger    : Optimizer, TS searches, QM/MM, DLPNO-CCSD(T), (RO)-DLPNO pert. Triples
   Tobias Risthaus        : Range-separated hybrids, TD-DFT gradient, RPA, STAB
   Michael Roemelt        : Original ROCIS implementation
   Masaaki Saitow         : Open-shell DLPNO-CCSD energy and density
   Barbara Sandhoefer     : DKH picture change effects
   Avijit Sen             : IP-ROCIS
   Kantharuban Sivalingam : CASSCF convergence, NEVPT2, FIC-MRCI
   Bernardo de Souza      : ESD, SOC TD-DFT
   Georgi Stoychev        : AutoAux, RI-MP2 NMR
   Willem Van den Heuvel  : Paramagnetic NMR
   Boris Wezisla          : Elementary symmetry handling
   Frank Wennmohs         : Technical directorship


 We gratefully acknowledge several colleagues who have allowed us to
 interface, adapt or use parts of their codes:
   Stefan Grimme, W. Hujo, H. Kruse,             : VdW corrections, initial TS optimization,
                  C. Bannwarth                     DFT functionals, gCP, sTDA/sTD-DF
   Ed Valeev, F. Pavosevic, A. Kumar             : LibInt (2-el integral package), F12 methods
   Garnet Chan, S. Sharma, J. Yang, R. Olivares  : DMRG
   Ulf Ekstrom                                   : XCFun DFT Library
   Mihaly Kallay                                 : mrcc  (arbitrary order and MRCC methods)
   Andreas Klamt, Michael Diedenhofen            : otool_cosmo (COSMO solvation model)
   Jiri Pittner, Ondrej Demel                    : Mk-CCSD
   Frank Weinhold                                : gennbo (NPA and NBO analysis)
   Christopher J. Cramer and Donald G. Truhlar   : smd solvation model
   Lars Goerigk                                  : TD-DFT with DH, B97 family of functionals
   V. Asgeirsson, H. Jonsson                     : NEB implementation
   FAccTs GmbH                                   : IRC, NEB, NEB-TS, Multilevel, MM, QM/MM, CI optimization
   S Lehtola, MJT Oliveira, MAL Marques          : LibXC Library


 Your calculation uses the libint2 library for the computation of 2-el integrals
 For citations please refer to: http://libint.valeyev.net

 Your ORCA version has been built with support for libXC version: 4.2.3
 For citations please refer to: https://tddft.org/programs/libxc/

 This ORCA versions uses:
   CBLAS   interface :  Fast vector & matrix operations
   LAPACKE interface :  Fast linear algebra routines
   SCALAPACK package :  Parallel linear algebra routines




***************************************
The coordinates will be read from file: p1r1.xyz
***************************************


----- Orbital basis set information -----
Your calculation utilizes the basis: def2-TZVP
   F. Weigend and R. Ahlrichs, Phys. Chem. Chem. Phys. 7, 3297 (2005).

----- AuxJ basis set information -----
Your calculation utilizes the auxiliary basis: def2/J
   F. Weigend, Phys. Chem. Chem. Phys. 8, 1057 (2006).

================================================================================
                                        WARNINGS
                       Please study these warnings very carefully!
================================================================================

INFO   : Checking CIS options ...

INFO   : Since TDDFT/CIS Mode == RPA_AOINTS, the TAMMDANCOFF/TDA keyword is ignored. 


WARNING: CIS/ROCIS methods need fully converged wavefunctions
  ===> : Setting SCFConvForced true
         You can overwrite this default with %scf ConvForced false 


INFO   : the flag for use of LIBINT has been found!

================================================================================
                                       INPUT FILE
================================================================================
NAME = p1r1.inp
|  1> #
|  2> # P1R1 PBE0 with tight SCF convergence criteria
|  3> #
|  4> ! PBE0 def2-TZVP def2/J TightSCF Grid4 FinalGrid5 NMGrad Normalprint Printbasis PrintMOs
|  5> #
|  6> %maxcore 3072
|  7> #
|  8> %pal
|  9>   nprocs 28
| 10> end
| 11> #
| 12> %tddft
| 13>   nroots 10   
| 14>   maxdim 10
| 15>   tda false
| 16> end
| 17> #
| 18> %rr 
| 19>   states 1,2,3,4,5,6,7,8,9,10
| 20>   HessName "p1r1.hess"
| 21>   ASAInput true
| 22> end
| 23> #
| 24> * xyzfile 0 1 p1r1.xyz
| 25> 
| 26>                          ****END OF INPUT****
================================================================================

                     *******************************
                     * Energy+Gradient Calculation *
                     *******************************

Will try to read the hessian file
 ...good, the file p1r1.hess exists

Cartesian cordinates from the hessian file will be used
Atomic masses from the hessian file will be used

There are 11 states to be processed:
 0, 1, 2, 3, 4, 5, 6, 7, 8, 9, 10

         *************************************************************
         *                 Single Point Calculation                  *
         *************************************************************
---------------------------------
CARTESIAN COORDINATES (ANGSTROEM)
---------------------------------
  C     -2.621161    0.892629    0.569522
  C     -1.244845    0.912525    0.713753
  C     -0.454027   -0.047940    0.075586
  C     -1.074594   -1.024660   -0.709530
  C     -2.451176   -1.035907   -0.851845
  C     -3.228474   -0.079466   -0.213322
  H     -3.223961    1.641458    1.070453
  H     -0.766413    1.670154    1.322670
  H     -0.463396   -1.770238   -1.203626
  H     -2.920853   -1.797361   -1.463885
  H     -4.306493   -0.091825   -0.325376
  C      0.961936   -0.033631    0.221940
  C      2.161602   -0.033913    0.344258
  C      3.612995    0.004177    0.462848
  O      4.279039    0.079062   -0.780842
  H      3.873201    0.785166   -1.291189
  H      3.896067    0.841034    1.116544
  H      3.970553   -0.911265    0.942040

----------------------------
CARTESIAN COORDINATES (A.U.)
----------------------------
  NO LB      ZA    FRAG     MASS         X           Y           Z
   0 C     6.0000    0    12.011   -4.953276    1.686825    1.076240
   1 C     6.0000    0    12.011   -2.352416    1.724423    1.348798
   2 C     6.0000    0    12.011   -0.857987   -0.090594    0.142836
   3 C     6.0000    0    12.011   -2.030688   -1.936326   -1.340817
   4 C     6.0000    0    12.011   -4.632051   -1.957581   -1.609753
   5 C     6.0000    0    12.011   -6.100932   -0.150169   -0.403120
   6 H     1.0000    0     1.008   -6.092404    3.101906    2.022864
   7 H     1.0000    0     1.008   -1.448312    3.156134    2.499485
   8 H     1.0000    0     1.008   -0.875692   -3.345265   -2.274524
   9 H     1.0000    0     1.008   -5.519612   -3.396520   -2.766342
  10 H     1.0000    0     1.008   -8.138092   -0.173523   -0.614871
  11 C     6.0000    0    12.011    1.817796   -0.063553    0.419406
  12 C     6.0000    0    12.011    4.084835   -0.064086    0.650554
  13 C     6.0000    0    12.011    6.827571    0.007894    0.874656
  14 O     8.0000    0    15.999    8.086211    0.149406   -1.475578
  15 H     1.0000    0     1.008    7.319289    1.483748   -2.439994
  16 H     1.0000    0     1.008    7.362499    1.589324    2.109962
  17 H     1.0000    0     1.008    7.503259   -1.722041    1.780198

--------------------------------
INTERNAL COORDINATES (ANGSTROEM)
--------------------------------
 C      0   0   0     0.000000000000     0.00000000     0.00000000
 C      1   0   0     1.383995619224     0.00000000     0.00000000
 C      2   1   0     1.398264795736   120.33099536     0.00000000
 C      3   2   1     1.398388580826   119.01436682     0.07953562
 C      4   3   2     1.383964726013   120.31911963     0.09258668
 C      1   2   3     1.388035644905   120.26172665   359.82681898
 H      1   2   3     1.083995485623   119.66422122   179.89825416
 H      2   1   3     1.083364329724   120.51697618   180.09011927
 H      4   3   2     1.083319044914   119.10453449   180.07506341
 H      5   4   3     1.083975077555   119.65327625   179.93495470
 H      6   1   2     1.083896734641   120.09617911   180.07275004
 C      3   2   1     1.423578439515   120.57857680   180.09500358
 C     12   3   2     1.205885212286   179.40533970   151.16958807
 C     13  12   3     1.456728212455   178.10024727   135.06046704
 O     14  13  12     1.412793918814   113.54270633   309.94484762
 H     15  14  13     0.961113996133   107.89725518    49.42221329
 H     14  13  12     1.098988982798   108.96347773    74.48907573
 H     14  13  12     1.093393126104   109.85284056   191.42816996

---------------------------
INTERNAL COORDINATES (A.U.)
---------------------------
 C      0   0   0     0.000000000000     0.00000000     0.00000000
 C      1   0   0     2.615372690881     0.00000000     0.00000000
 C      2   1   0     2.642337526645   120.33099536     0.00000000
 C      3   2   1     2.642571446564   119.01436682     0.07953562
 C      4   3   2     2.615314311171   120.31911963     0.09258668
 C      1   2   3     2.623007232992   120.26172665   359.82681898
 H      1   2   3     2.048454598234   119.66422122   179.89825416
 H      2   1   3     2.047261886437   120.51697618   180.09011927
 H      4   3   2     2.047176310549   119.10453449   180.07506341
 H      5   4   3     2.048416032574   119.65327625   179.93495470
 H      6   1   2     2.048267985923   120.09617911   180.07275004
 C      3   2   1     2.690173380838   120.57857680   180.09500358
 C     12   3   2     2.278792800165   179.40533970   151.16958807
 C     13  12   3     2.752817373096   178.10024727   135.06046704
 O     14  13  12     2.669793590227   113.54270633   309.94484762
 H     15  14  13     1.816242236170   107.89725518    49.42221329
 H     14  13  12     2.076788201685   108.96347773    74.48907573
 H     14  13  12     2.066213565048   109.85284056   191.42816996

---------------------
BASIS SET INFORMATION
---------------------
There are 3 groups of distinct atoms

 Group   1 Type C   : 11s6p2d1f contracted to 5s3p2d1f pattern {62111/411/11/1}
 Group   2 Type H   : 5s1p contracted to 3s1p pattern {311/1}
 Group   3 Type O   : 11s6p2d1f contracted to 5s3p2d1f pattern {62111/411/11/1}

Atom   0C    basis set group =>   1
Atom   1C    basis set group =>   1
Atom   2C    basis set group =>   1
Atom   3C    basis set group =>   1
Atom   4C    basis set group =>   1
Atom   5C    basis set group =>   1
Atom   6H    basis set group =>   2
Atom   7H    basis set group =>   2
Atom   8H    basis set group =>   2
Atom   9H    basis set group =>   2
Atom  10H    basis set group =>   2
Atom  11C    basis set group =>   1
Atom  12C    basis set group =>   1
Atom  13C    basis set group =>   1
Atom  14O    basis set group =>   3
Atom  15H    basis set group =>   2
Atom  16H    basis set group =>   2
Atom  17H    basis set group =>   2

-------------------------
BASIS SET IN INPUT FORMAT
-------------------------

 # Basis set for element : H 
 NewGTO H 
 S 3 
   1      34.0613410000      0.0254393072
   2       5.1235746000      0.1900859489
   3       1.1646626000      0.8524411301
 S 1 
   1       0.3272304100      1.0000000000
 S 1 
   1       0.1030724100      1.0000000000
 P 1 
   1       0.8000000000      1.0000000000
  end;

 # Basis set for element : C 
 NewGTO C 
 S 6 
   1   13575.3496820000      0.0006064549
   2    2035.2333680000      0.0046979088
   3     463.2256235900      0.0243324776
   4     131.2001959800      0.0973999683
   5      42.8530158910      0.3019558425
   6      15.5841857660      0.6623360915
 S 2 
   1       6.2067138508      0.6559530854
   2       2.5764896527      0.3758563329
 S 1 
   1       0.5769633942      1.0000000000
 S 1 
   1       0.2297283136      1.0000000000
 S 1 
   1       0.0951644400      1.0000000000
 P 4 
   1      34.6972322440      0.0113272200
   2       7.9582622826      0.0761696592
   3       2.3780826883      0.3019225220
   4       0.8143320818      0.7278502735
 P 1 
   1       0.2888754725      1.0000000000
 P 1 
   1       0.1005682367      1.0000000000
 D 1 
   1       1.0970000000      1.0000000000
 D 1 
   1       0.3180000000      1.0000000000
 F 1 
   1       0.7610000000      1.0000000000
  end;

 # Basis set for element : O 
 NewGTO O 
 S 6 
   1   27032.3826310000      0.0005722733
   2    4052.3871392000      0.0044353233
   3     922.3272271000      0.0230201076
   4     261.2407098900      0.0928224906
   5      85.3546413510      0.2937850002
   6      31.0350352450      0.6740160450
 S 2 
   1      12.2608607280      0.6383993702
   2       4.9987076005      0.3953458713
 S 1 
   1       1.1703108158      1.0000000000
 S 1 
   1       0.4647474099      1.0000000000
 S 1 
   1       0.1850453636      1.0000000000
 P 4 
   1      63.2749548010      0.0120183321
   2      14.6270493790      0.0830054217
   3       4.4501223456      0.3199174393
   4       1.5275799647      0.7071554292
 P 1 
   1       0.5293511794      1.0000000000
 P 1 
   1       0.1747842127      1.0000000000
 D 1 
   1       2.3140000000      1.0000000000
 D 1 
   1       0.6450000000      1.0000000000
 F 1 
   1       1.4280000000      1.0000000000
  end;

---------------------------------
AUXILIARY/J BASIS SET INFORMATION
---------------------------------
There are 3 groups of distinct atoms

 Group   1 Type C   : 12s5p4d2f1g contracted to 6s4p3d1f1g pattern {711111/2111/211/2/1}
 Group   2 Type H   : 5s2p1d contracted to 3s1p1d pattern {311/2/1}
 Group   3 Type O   : 12s5p4d2f1g contracted to 6s4p3d1f1g pattern {711111/2111/211/2/1}

Atom   0C    basis set group =>   1
Atom   1C    basis set group =>   1
Atom   2C    basis set group =>   1
Atom   3C    basis set group =>   1
Atom   4C    basis set group =>   1
Atom   5C    basis set group =>   1
Atom   6H    basis set group =>   2
Atom   7H    basis set group =>   2
Atom   8H    basis set group =>   2
Atom   9H    basis set group =>   2
Atom  10H    basis set group =>   2
Atom  11C    basis set group =>   1
Atom  12C    basis set group =>   1
Atom  13C    basis set group =>   1
Atom  14O    basis set group =>   3
Atom  15H    basis set group =>   2
Atom  16H    basis set group =>   2
Atom  17H    basis set group =>   2

-------------------------------------
AUXILIARY/J BASIS SET IN INPUT FORMAT
-------------------------------------

 # Auxiliary/J basis set for element : H 
 NewAuxJGTO H 
 S 3 
   1      15.6752927000      0.1007184237
   2       3.6063578000      0.3404257499
   3       1.2080016000      0.6491996172
 S 1 
   1       0.4726794000      1.0000000000
 S 1 
   1       0.2018100000      1.0000000000
 P 2 
   1       2.0281365000      0.5596620919
   2       0.5358730000      0.5596620919
 D 1 
   1       2.2165124000      1.0000000000
  end;

 # Auxiliary/J basis set for element : C 
 NewAuxJGTO C 
 S 7 
   1    1861.0916331000      0.0134602335
   2     642.9939764000      0.0299160374
   3     235.1105725000      0.1008649584
   4      90.7028894000      0.2370970548
   5      36.7794552000      0.3924037254
   6      15.6046273000      0.3195862154
   7       6.8907294000      0.0530104441
 S 1 
   1       3.1478850000     -1.0000000000
 S 1 
   1       1.4777287000      1.0000000000
 S 1 
   1       0.7076466000      1.0000000000
 S 1 
   1       0.3430122000      1.0000000000
 S 1 
   1       0.1669453000      1.0000000000
 P 2 
   1      13.5472892000     -0.6769313712
   2       5.4669419000     -0.3779500978
 P 1 
   1       2.1751721000      1.0000000000
 P 1 
   1       0.8582194000      1.0000000000
 P 1 
   1       0.3376720000      1.0000000000
 D 2 
   1       5.9287253000     -0.3533329857
   2       1.9809209000     -0.7456525731
 D 1 
   1       0.8055417000     -1.0000000000
 D 1 
   1       0.3531244000     -1.0000000000
 F 2 
   1       1.6755626000      0.6311076882
   2       0.5997536000      0.4968166032
 G 1 
   1       1.0024600000     -1.0000000000
  end;

 # Auxiliary/J basis set for element : O 
 NewAuxJGTO O 
 S 7 
   1    2876.8216605000      0.0168151159
   2    1004.7443032000      0.0340137548
   3     369.7579954000      0.1194951309
   4     142.9442404000      0.2664627624
   5      57.8366425000      0.4202764046
   6      24.3864983000      0.2765077335
   7      10.6622662000      0.0057008815
 S 1 
   1       4.8070437000     -1.0000000000
 S 1 
   1       2.2210770000      1.0000000000
 S 1 
   1       1.0447795000      1.0000000000
 S 1 
   1       0.4968425000      1.0000000000
 S 1 
   1       0.2371384000      1.0000000000
 P 2 
   1      64.2613382000     -0.2731534179
   2      16.3006076000     -0.8168011598
 P 1 
   1       4.3550542000      1.0000000000
 P 1 
   1       1.2019554000      1.0000000000
 P 1 
   1       0.3354196000      1.0000000000
 D 2 
   1       9.2146611000     -0.4661230638
   2       2.8435251000     -0.6600908911
 D 1 
   1       0.9955759000     -1.0000000000
 D 1 
   1       0.3649441000     -1.0000000000
 F 2 
   1       2.6420115000      0.5931563945
   2       0.7345613000      0.5931563945
 G 1 
   1       1.3931000000     -1.0000000000
  end;



           ************************************************************
           *        Program running with 28 parallel MPI-processes    *
           *              working on a common directory               *
           ************************************************************
------------------------------------------------------------------------------
                           ORCA GTO INTEGRAL CALCULATION
------------------------------------------------------------------------------

                         BASIS SET STATISTICS AND STARTUP INFO

 # of primitive gaussian shells          ...  248
 # of primitive gaussian functions       ...  524
 # of contracted shells                  ...  142
 # of contracted basis functions         ...  358
 Highest angular momentum                ...    3
 Maximum contraction depth               ...    6
 Integral package used                   ... LIBINT
 Integral threshhold            Thresh   ...  2.500e-11
 Primitive cut-off              TCut     ...  2.500e-12


------------------------------ INTEGRAL EVALUATION ----------------------------


 * One electron integrals 
 Pre-screening matrix                    ... done
 Shell pair data                         ... done (   0.004 sec)



           ************************************************************
           *        Program running with 28 parallel MPI-processes    *
           *              working on a common directory               *
           ************************************************************
-------------------------------------------------------------------------------
                                 ORCA SCF
-------------------------------------------------------------------------------

------------
SCF SETTINGS
------------
Hamiltonian:
 Density Functional     Method          .... DFT(GTOs)
 Exchange Functional    Exchange        .... PBE
   PBE kappa parameter   XKappa         ....  0.804000
   PBE mue parameter    XMuePBE         ....  0.219520
 Correlation Functional Correlation     .... PBE
   PBE beta parameter  CBetaPBE         ....  0.066725
 LDA part of GGA corr.  LDAOpt          .... PW91-LDA
 Gradients option       PostSCFGGA      .... off
 Hybrid DFT is turned on
   Fraction HF Exchange ScalHFX         ....  0.250000
   Scaling of DF-GGA-X  ScalDFX         ....  0.750000
   Scaling of DF-GGA-C  ScalDFC         ....  1.000000
   Scaling of DF-LDA-C  ScalLDAC        ....  1.000000
   Perturbative correction              ....  0.000000
   Density functional embedding theory  .... OFF
   NL short-range parameter             ....  6.900000


General Settings:
 Integral files         IntName         .... p1r1
 Hartree-Fock type      HFTyp           .... RHF
 Total Charge           Charge          ....    0
 Multiplicity           Mult            ....    1
 Number of Electrons    NEL             ....   70
 Basis Dimension        Dim             ....  358
 Nuclear Repulsion      ENuc            ....    434.3507411588 Eh

Convergence Acceleration:
 DIIS                   CNVDIIS         .... on
   Start iteration      DIISMaxIt       ....    12
   Startup error        DIISStart       ....  0.200000
   # of expansion vecs  DIISMaxEq       ....     5
   Bias factor          DIISBfac        ....   1.050
   Max. coefficient     DIISMaxC        ....  10.000
 Newton-Raphson         CNVNR           .... off
 SOSCF                  CNVSOSCF        .... on
   Start iteration      SOSCFMaxIt      ....   150
   Startup grad/error   SOSCFStart      ....  0.003300
 Level Shifting         CNVShift        .... on
   Level shift para.    LevelShift      ....    0.2500
   Turn off err/grad.   ShiftErr        ....    0.0010
 Zerner damping         CNVZerner       .... off
 Static damping         CNVDamp         .... on
   Fraction old density DampFac         ....    0.7000
   Max. Damping (<1)    DampMax         ....    0.9800
   Min. Damping (>=0)   DampMin         ....    0.0000
   Turn off err/grad.   DampErr         ....    0.1000
 Fernandez-Rico         CNVRico         .... off

SCF Procedure:
 Maximum # iterations   MaxIter         ....   125
 SCF integral mode      SCFMode         .... Direct
   Integral package                     .... LIBINT
 Reset frequency        DirectResetFreq ....    20
 Integral Threshold     Thresh          ....  2.500e-11 Eh
 Primitive CutOff       TCut            ....  2.500e-12 Eh

Convergence Tolerance:
 Convergence Check Mode ConvCheckMode   .... Total+1el-Energy
 Convergence forced     ConvForced      .... 1
 Energy Change          TolE            ....  1.000e-08 Eh
 1-El. energy change                    ....  1.000e-05 Eh
 Orbital Gradient       TolG            ....  1.000e-05
 Orbital Rotation angle TolX            ....  1.000e-05
 DIIS Error             TolErr          ....  5.000e-07


Diagonalization of the overlap matrix:
Smallest eigenvalue                        ... 7.795e-06
Time for diagonalization                   ...    0.038 sec
Threshold for overlap eigenvalues          ... 1.000e-08
Number of eigenvalues below threshold      ... 0
Time for construction of square roots      ...    0.021 sec
Total time needed                          ...    0.061 sec

-------------------
DFT GRID GENERATION
-------------------

General Integration Accuracy     IntAcc      ...  4.670
Radial Grid Type                 RadialGrid  ... Gauss-Chebyshev
Angular Grid (max. acc.)         AngularGrid ... Lebedev-302
Angular grid pruning method      GridPruning ... 3 (G Style)
Weight generation scheme         WeightScheme... Becke
Basis function cutoff            BFCut       ...    1.0000e-11
Integration weight cutoff        WCut        ...    1.0000e-14
Grids for H and He will be reduced by one unit

# of grid points (after initial pruning)     ...  89272 (   0.0 sec)
# of grid points (after weights+screening)   ...  82055 (   0.0 sec)
nearest neighbour list constructed           ...    0.0 sec
Grid point re-assignment to atoms done       ...    0.0 sec
Grid point division into batches done        ...    0.4 sec
Reduced shell lists constructed in    0.5 sec

Total number of grid points                  ...    82055
Total number of batches                      ...     1292
Average number of points per batch           ...       63
Average number of grid points per atom       ...     4559
Average number of shells per batch           ...    86.77 (61.11%)
Average number of basis functions per batch  ...   226.77 (63.34%)
Average number of large shells per batch     ...    68.90 (79.40%)
Average number of large basis fcns per batch ...   182.98 (80.69%)
Maximum spatial batch extension              ...   3.88,  9.20, 13.77 au
Average spatial batch extension              ...   0.05,  0.06,  0.07 au

Time for grid setup =    0.570 sec

------------------------------
INITIAL GUESS: MODEL POTENTIAL
------------------------------
Loading Hartree-Fock densities                     ... done
Calculating cut-offs                               ... done
Setting up the integral package                    ... done
Initializing the effective Hamiltonian             ... done
Starting the Coulomb interaction                   ... done (   0.0 sec)
Reading the grid                                   ... done
Mapping shells                                     ... done
Starting the XC term evaluation                    ... done (   0.1 sec)
  promolecular density results
     # of electrons  =     69.996043985
     EX              =    -56.506483654
     EC              =     -2.301402545
     EX+EC           =    -58.807886198
Transforming the Hamiltonian                       ... done (   0.0 sec)
Diagonalizing the Hamiltonian                      ... done (   0.0 sec)
Back transforming the eigenvectors                 ... done (   0.0 sec)
Now organizing SCF variables                       ... done
                      ------------------
                      INITIAL GUESS DONE (   0.9 sec)
                      ------------------
--------------
SCF ITERATIONS
--------------
               ***  Starting incremental Fock matrix formation  ***

                         ----------------------------
                         !        ITERATION     0   !
                         ----------------------------
   Total Energy        :    -422.342098683574 Eh
   Energy Change       :    -422.342098683574 Eh
   MAX-DP              :       0.420362484830
   RMS-DP              :       0.002734970686
   Actual Damping      :       0.7000
   Actual Level Shift  :       0.2500 Eh
   Int. Num. El.       :    69.99997620 (UP=   34.99998810 DN=   34.99998810)
   Exchange            :   -43.86895529
   Correlation         :    -2.33433421


                         ----------------------------
                         !        ITERATION     1   !
                         ----------------------------
   Total Energy        :    -422.447134131572 Eh
   Energy Change       :      -0.105035447998 Eh
   MAX-DP              :       0.387778044213
   RMS-DP              :       0.002435469095
   Actual Damping      :       0.7000
   Actual Level Shift  :       0.2500 Eh
   Int. Num. El.       :    69.99997544 (UP=   34.99998772 DN=   34.99998772)
   Exchange            :   -43.56173772
   Correlation         :    -2.32547233

                               ***Turning on DIIS***

                         ----------------------------
                         !        ITERATION     2   !
                         ----------------------------
   Total Energy        :    -422.494350959999 Eh
   Energy Change       :      -0.047216828426 Eh
   MAX-DP              :       0.540762661308
   RMS-DP              :       0.003701714747
   Actual Damping      :       0.0000
   Actual Level Shift  :       0.2500 Eh
   Int. Num. El.       :    69.99997430 (UP=   34.99998715 DN=   34.99998715)
   Exchange            :   -43.35469916
   Correlation         :    -2.31886362
   DIIS-Error          :       0.038493484660


                         ----------------------------
                         !        ITERATION     3   !
                         ----------------------------
   Total Energy        :    -422.565776058866 Eh
   Energy Change       :      -0.071425098867 Eh
   MAX-DP              :       0.372818011544
   RMS-DP              :       0.002220574900
   Actual Damping      :       0.0000
   Actual Level Shift  :       0.2500 Eh
   Int. Num. El.       :    69.99997103 (UP=   34.99998551 DN=   34.99998551)
   Exchange            :   -43.02850627
   Correlation         :    -2.30968611
   DIIS-Error          :       0.056162838455
   DIIS coefficients:
      0.49123   0.50877


                         ----------------------------
                         !        ITERATION     4   !
                         ----------------------------
   Total Energy        :    -422.580821965861 Eh
   Energy Change       :      -0.015045906995 Eh
   MAX-DP              :       0.079260809594
   RMS-DP              :       0.000555560302
   Actual Damping      :       0.0000
   Actual Level Shift  :       0.2500 Eh
   Int. Num. El.       :    69.99997147 (UP=   34.99998574 DN=   34.99998574)
   Exchange            :   -43.16816437
   Correlation         :    -2.31450238
   DIIS-Error          :       0.010015123306
   DIIS coefficients:
      0.17235   0.07775   0.74990


                         ----------------------------
                         !        ITERATION     5   !
                         ----------------------------
   Total Energy        :    -422.581486750040 Eh
   Energy Change       :      -0.000664784179 Eh
   MAX-DP              :       0.053687061897
   RMS-DP              :       0.000306252193
   Actual Damping      :       0.0000
   Actual Level Shift  :       0.2500 Eh
   Int. Num. El.       :    69.99997210 (UP=   34.99998605 DN=   34.99998605)
   Exchange            :   -43.18380284
   Correlation         :    -2.31562136
   DIIS-Error          :       0.006280036046
   DIIS coefficients:
      0.04247   0.00041   0.20977   0.74735

                      *** Initiating the SOSCF procedure ***
                           *** Shutting down DIIS ***
                      *** Re-Reading the Fockian *** 
                      *** Removing any level shift *** 

                         ----------------------------
                         !        ITERATION     6   !
                         ----------------------------
   Total Energy        :    -422.581543986019 Eh
   Energy Change       :      -0.000057235979 Eh
   MAX-DP              :       0.015800665583
   RMS-DP              :       0.000095734689
   Orbital gradient    :       0.000187571855
   Orbital Rotation    :       0.000187571855
   Actual Damping      :       0.0000
   Int. Num. El.       :    69.99997219 (UP=   34.99998610 DN=   34.99998610)
   Exchange            :   -43.19095793
   Correlation         :    -2.31586140

               *** Restarting incremental Fock matrix formation ***

                         ----------------------------
                         !        ITERATION     7   !
                         ----------------------------
   Total Energy        :    -422.581547533008 Eh
   Energy Change       :      -0.000003546989 Eh
   MAX-DP              :       0.008064423072
   RMS-DP              :       0.000052519707
   Orbital gradient    :       0.000085692469
   Orbital Rotation    :       0.000309544089
   Actual Damping      :       0.0000
   Int. Num. El.       :    69.99997220 (UP=   34.99998610 DN=   34.99998610)
   Exchange            :   -43.19094722
   Correlation         :    -2.31592965


                         ----------------------------
                         !        ITERATION     8   !
                         ----------------------------
   Total Energy        :    -422.581547435885 Eh
   Energy Change       :       0.000000097123 Eh
   MAX-DP              :       0.003124563129
   RMS-DP              :       0.000018465631
   Orbital gradient    :       0.000154267199
   Orbital Rotation    :       0.000241017219
   Actual Damping      :       0.0000
   Int. Num. El.       :    69.99997225 (UP=   34.99998612 DN=   34.99998612)
   Exchange            :   -43.19063642
   Correlation         :    -2.31593005


                         ----------------------------
                         !        ITERATION     9   !
                         ----------------------------
   Total Energy        :    -422.581548111768 Eh
   Energy Change       :      -0.000000675884 Eh
   MAX-DP              :       0.001725734861
   RMS-DP              :       0.000011588718
   Orbital gradient    :       0.000046993492
   Orbital Rotation    :       0.000114896119
   Actual Damping      :       0.0000
   Int. Num. El.       :    69.99997224 (UP=   34.99998612 DN=   34.99998612)
   Exchange            :   -43.19082823
   Correlation         :    -2.31594209


                         ----------------------------
                         !        ITERATION    10   !
                         ----------------------------
   Total Energy        :    -422.581548050650 Eh
   Energy Change       :       0.000000061118 Eh
   MAX-DP              :       0.000097726210
   RMS-DP              :       0.000001464656
   Orbital gradient    :       0.000052088434
   Orbital Rotation    :       0.000102781603
   Actual Damping      :       0.0000
   Int. Num. El.       :    69.99997223 (UP=   34.99998611 DN=   34.99998611)
   Exchange            :   -43.19093908
   Correlation         :    -2.31594588


                         ----------------------------
                         !        ITERATION    11   !
                         ----------------------------
   Total Energy        :    -422.581548154928 Eh
   Energy Change       :      -0.000000104278 Eh
   MAX-DP              :       0.000698660161
   RMS-DP              :       0.000004238186
   Orbital gradient    :       0.000007152950
   Orbital Rotation    :       0.000026639000
   Actual Damping      :       0.0000
   Int. Num. El.       :    69.99997224 (UP=   34.99998612 DN=   34.99998612)
   Exchange            :   -43.19085095
   Correlation         :    -2.31594101


                         ----------------------------
                         !        ITERATION    12   !
                         ----------------------------
   Total Energy        :    -422.581548154223 Eh
   Energy Change       :       0.000000000705 Eh
   MAX-DP              :       0.000229680215
   RMS-DP              :       0.000001515213
   Orbital gradient    :       0.000010052888
   Orbital Rotation    :       0.000014968555
   Actual Damping      :       0.0000
   Int. Num. El.       :    69.99997224 (UP=   34.99998612 DN=   34.99998612)
   Exchange            :   -43.19085229
   Correlation         :    -2.31594091

                  ***Gradient check signals convergence***
              ***Rediagonalizing the Fockian in SOSCF/NRSCF***

               *****************************************************
               *                     SUCCESS                       *
               *           SCF CONVERGED AFTER  13 CYCLES          *
               *****************************************************

Setting up the final grid:

General Integration Accuracy     IntAcc      ...  5.010
Radial Grid Type                 RadialGrid  ... Gauss-Chebyshev
Angular Grid (max. acc.)         AngularGrid ... Lebedev-434
Angular grid pruning method      GridPruning ... 3 (G Style)
Weight generation scheme         WeightScheme... Becke
Basis function cutoff            BFCut       ...    1.0000e-11
Integration weight cutoff        WCut        ...    1.0000e-14
Grids for H and He will be reduced by one unit

# of grid points (after initial pruning)     ... 160660 (   0.0 sec)
# of grid points (after weights+screening)   ... 147329 (   0.1 sec)
nearest neighbour list constructed           ...    0.0 sec
Grid point re-assignment to atoms done       ...    0.0 sec
Grid point division into batches done        ...    1.5 sec
Reduced shell lists constructed in    1.6 sec

Total number of grid points                  ...   147329
Total number of batches                      ...     2310
Average number of points per batch           ...       63
Average number of grid points per atom       ...     8185
Average number of shells per batch           ...    86.27 (60.76%)
Average number of basis functions per batch  ...   226.01 (63.13%)
Average number of large shells per batch     ...    67.68 (78.45%)
Average number of large basis fcns per batch ...   179.46 (79.40%)
Maximum spatial batch extension              ...   3.71, 12.00, 13.23 au
Average spatial batch extension              ...   0.04,  0.05,  0.05 au

Final grid set up in    1.7 sec
Final integration                            ... done (   0.3 sec)
Change in XC energy                          ...     0.000175208
Integrated number of electrons               ...    70.000002321
Previous integrated no of electrons          ...    69.999972237

----------------
TOTAL SCF ENERGY
----------------

Total Energy       :         -422.58137295 Eh          -11499.02376 eV

Components:
Nuclear Repulsion  :          434.35074116 Eh           11819.28455 eV
Electronic Energy  :         -856.93211411 Eh          -23318.30830 eV
One Electron Energy:        -1431.95688939 Eh          -38965.52793 eV
Two Electron Energy:          575.02477528 Eh           15647.21962 eV

Virial components:
Potential Energy   :         -843.21427300 Eh          -22945.02687 eV
Kinetic Energy     :          420.63290005 Eh           11446.00311 eV
Virial Ratio       :            2.00463224


DFT components:
N(Alpha)           :       35.000001160293 electrons
N(Beta)            :       35.000001160293 electrons
N(Total)           :       70.000002320585 electrons
E(X)               :      -43.190803723879 Eh       
E(C)               :       -2.315816043278 Eh       
E(XC)              :      -45.506619767158 Eh       
DFET-embed. en.    :        0.000000000000 Eh       

---------------
SCF CONVERGENCE
---------------

  Last Energy change         ...   -4.4659e-09  Tolerance :   1.0000e-08
  Last MAX-Density change    ...    1.9629e-04  Tolerance :   1.0000e-07
  Last RMS-Density change    ...    1.3621e-06  Tolerance :   5.0000e-09
  Last Orbital Gradient      ...    6.7529e-07  Tolerance :   1.0000e-05
  Last Orbital Rotation      ...    1.7583e-06  Tolerance :   1.0000e-05

             **** THE GBW FILE WAS UPDATED (p1r1.gbw) ****
             **** DENSITY FILE WAS UPDATED (p1r1.scfp) ****
             **** ENERGY FILE WAS UPDATED (p1r1.en.tmp) ****
             **** THE GBW FILE WAS UPDATED (p1r1.gbw) ****
             **** DENSITY FILE WAS UPDATED (p1r1.scfp) ****
----------------
ORBITAL ENERGIES
----------------

  NO   OCC          E(Eh)            E(eV) 
   0   2.0000     -19.213236      -522.8187 
   1   2.0000     -10.293750      -280.1072 
   2   2.0000     -10.258394      -279.1451 
   3   2.0000     -10.237903      -278.5875 
   4   2.0000     -10.237492      -278.5763 
   5   2.0000     -10.236189      -278.5409 
   6   2.0000     -10.235306      -278.5168 
   7   2.0000     -10.235019      -278.5090 
   8   2.0000     -10.229841      -278.3681 
   9   2.0000     -10.226369      -278.2737 
  10   2.0000      -1.063324       -28.9345 
  11   2.0000      -0.900269       -24.4976 
  12   2.0000      -0.818583       -22.2748 
  13   2.0000      -0.781917       -21.2770 
  14   2.0000      -0.779428       -21.2093 
  15   2.0000      -0.716488       -19.4966 
  16   2.0000      -0.644995       -17.5512 
  17   2.0000      -0.635949       -17.3050 
  18   2.0000      -0.570742       -15.5307 
  19   2.0000      -0.549366       -14.9490 
  20   2.0000      -0.504974       -13.7411 
  21   2.0000      -0.490766       -13.3544 
  22   2.0000      -0.481982       -13.1154 
  23   2.0000      -0.469466       -12.7748 
  24   2.0000      -0.455758       -12.4018 
  25   2.0000      -0.444546       -12.0967 
  26   2.0000      -0.406492       -11.0612 
  27   2.0000      -0.382711       -10.4141 
  28   2.0000      -0.376234       -10.2379 
  29   2.0000      -0.367358        -9.9963 
  30   2.0000      -0.331189        -9.0121 
  31   2.0000      -0.308435        -8.3930 
  32   2.0000      -0.283878        -7.7247 
  33   2.0000      -0.278293        -7.5727 
  34   2.0000      -0.250111        -6.8059 
  35   0.0000      -0.040473        -1.1013 
  36   0.0000      -0.015021        -0.4088 
  37   0.0000       0.034611         0.9418 
  38   0.0000       0.052843         1.4379 
  39   0.0000       0.055114         1.4997 
  40   0.0000       0.072219         1.9652 
  41   0.0000       0.085834         2.3357 
  42   0.0000       0.086352         2.3498 
  43   0.0000       0.097753         2.6600 
  44   0.0000       0.121224         3.2987 
  45   0.0000       0.123242         3.3536 
  46   0.0000       0.128787         3.5045 
  47   0.0000       0.132658         3.6098 
  48   0.0000       0.151722         4.1286 
  49   0.0000       0.166835         4.5398 
  50   0.0000       0.180215         4.9039 
  51   0.0000       0.191943         5.2230 
  52   0.0000       0.200566         5.4577 
  53   0.0000       0.216039         5.8787 
  54   0.0000       0.217437         5.9168 
  55   0.0000       0.219636         5.9766 
  56   0.0000       0.236902         6.4464 
  57   0.0000       0.239562         6.5188 
  58   0.0000       0.252084         6.8596 
  59   0.0000       0.254450         6.9239 
  60   0.0000       0.268797         7.3143 
  61   0.0000       0.282272         7.6810 
  62   0.0000       0.289364         7.8740 
  63   0.0000       0.296872         8.0783 
  64   0.0000       0.323534         8.8038 
  65   0.0000       0.324104         8.8193 
  66   0.0000       0.333928         9.0866 
  67   0.0000       0.335058         9.1174 
  68   0.0000       0.353477         9.6186 
  69   0.0000       0.357944         9.7402 
  70   0.0000       0.369435        10.0528 
  71   0.0000       0.373852        10.1730 
  72   0.0000       0.387180        10.5357 
  73   0.0000       0.392296        10.6749 
  74   0.0000       0.402442        10.9510 
  75   0.0000       0.409600        11.1458 
  76   0.0000       0.420006        11.4290 
  77   0.0000       0.425014        11.5652 
  78   0.0000       0.428460        11.6590 
  79   0.0000       0.437403        11.9024 
  80   0.0000       0.445472        12.1219 
  81   0.0000       0.458683        12.4814 
  82   0.0000       0.470436        12.8012 
  83   0.0000       0.473085        12.8733 
  84   0.0000       0.488339        13.2884 
  85   0.0000       0.492330        13.3970 
  86   0.0000       0.494629        13.4595 
  87   0.0000       0.505052        13.7432 
  88   0.0000       0.513645        13.9770 
  89   0.0000       0.535789        14.5796 
  90   0.0000       0.561767        15.2865 
  91   0.0000       0.574305        15.6276 
  92   0.0000       0.576920        15.6988 
  93   0.0000       0.613516        16.6946 
  94   0.0000       0.617681        16.8080 
  95   0.0000       0.619486        16.8571 
  96   0.0000       0.631081        17.1726 
  97   0.0000       0.639607        17.4046 
  98   0.0000       0.665236        18.1020 
  99   0.0000       0.672707        18.3053 
 100   0.0000       0.689094        18.7512 
 101   0.0000       0.690133        18.7795 
 102   0.0000       0.705241        19.1906 
 103   0.0000       0.712664        19.3926 
 104   0.0000       0.738275        20.0895 
 105   0.0000       0.741368        20.1737 
 106   0.0000       0.750503        20.4222 
 107   0.0000       0.765669        20.8349 
 108   0.0000       0.785174        21.3657 
 109   0.0000       0.806002        21.9324 
 110   0.0000       0.829386        22.5687 
 111   0.0000       0.844117        22.9696 
 112   0.0000       0.848098        23.0779 
 113   0.0000       0.854036        23.2395 
 114   0.0000       0.883301        24.0359 
 115   0.0000       0.887195        24.1418 
 116   0.0000       0.895800        24.3759 
 117   0.0000       0.913064        24.8457 
 118   0.0000       0.921207        25.0673 
 119   0.0000       0.960847        26.1460 
 120   0.0000       0.979099        26.6426 
 121   0.0000       1.003603        27.3094 
 122   0.0000       1.010456        27.4959 
 123   0.0000       1.022031        27.8109 
 124   0.0000       1.047126        28.4937 
 125   0.0000       1.066053        29.0088 
 126   0.0000       1.078230        29.3401 
 127   0.0000       1.087390        29.5894 
 128   0.0000       1.126692        30.6589 
 129   0.0000       1.155970        31.4556 
 130   0.0000       1.161124        31.5958 
 131   0.0000       1.172213        31.8975 
 132   0.0000       1.192364        32.4459 
 133   0.0000       1.210661        32.9438 
 134   0.0000       1.225487        33.3472 
 135   0.0000       1.228488        33.4289 
 136   0.0000       1.251966        34.0677 
 137   0.0000       1.285755        34.9872 
 138   0.0000       1.294854        35.2348 
 139   0.0000       1.320768        35.9399 
 140   0.0000       1.329799        36.1857 
 141   0.0000       1.338932        36.4342 
 142   0.0000       1.380811        37.5738 
 143   0.0000       1.385414        37.6990 
 144   0.0000       1.421022        38.6680 
 145   0.0000       1.430686        38.9310 
 146   0.0000       1.458142        39.6780 
 147   0.0000       1.465988        39.8916 
 148   0.0000       1.471818        40.0502 
 149   0.0000       1.480784        40.2942 
 150   0.0000       1.496494        40.7217 
 151   0.0000       1.501619        40.8611 
 152   0.0000       1.523504        41.4566 
 153   0.0000       1.525973        41.5238 
 154   0.0000       1.543735        42.0072 
 155   0.0000       1.564179        42.5635 
 156   0.0000       1.572167        42.7809 
 157   0.0000       1.580879        43.0179 
 158   0.0000       1.605560        43.6895 
 159   0.0000       1.616876        43.9974 
 160   0.0000       1.621300        44.1178 
 161   0.0000       1.647695        44.8361 
 162   0.0000       1.662854        45.2486 
 163   0.0000       1.687369        45.9156 
 164   0.0000       1.694272        46.1035 
 165   0.0000       1.702933        46.3392 
 166   0.0000       1.713010        46.6134 
 167   0.0000       1.725291        46.9475 
 168   0.0000       1.764514        48.0149 
 169   0.0000       1.788554        48.6690 
 170   0.0000       1.810249        49.2594 
 171   0.0000       1.823248        49.6131 
 172   0.0000       1.828763        49.7632 
 173   0.0000       1.854918        50.4749 
 174   0.0000       1.874391        51.0048 
 175   0.0000       1.911398        52.0118 
 176   0.0000       1.917540        52.1789 
 177   0.0000       1.928916        52.4885 
 178   0.0000       1.951247        53.0961 
 179   0.0000       1.994072        54.2615 
 180   0.0000       2.013952        54.8024 
 181   0.0000       2.037350        55.4391 
 182   0.0000       2.041364        55.5483 
 183   0.0000       2.060609        56.0720 
 184   0.0000       2.078414        56.5565 
 185   0.0000       2.079845        56.5955 
 186   0.0000       2.105636        57.2973 
 187   0.0000       2.121197        57.7207 
 188   0.0000       2.162820        58.8533 
 189   0.0000       2.165989        58.9395 
 190   0.0000       2.204938        59.9994 
 191   0.0000       2.231880        60.7326 
 192   0.0000       2.245533        61.1040 
 193   0.0000       2.249016        61.1988 
 194   0.0000       2.275122        61.9092 
 195   0.0000       2.314346        62.9765 
 196   0.0000       2.330027        63.4033 
 197   0.0000       2.358586        64.1804 
 198   0.0000       2.390260        65.0423 
 199   0.0000       2.405719        65.4629 
 200   0.0000       2.432032        66.1789 
 201   0.0000       2.449204        66.6462 
 202   0.0000       2.459834        66.9355 
 203   0.0000       2.500617        68.0452 
 204   0.0000       2.508870        68.2698 
 205   0.0000       2.518138        68.5220 
 206   0.0000       2.551623        69.4332 
 207   0.0000       2.569667        69.9242 
 208   0.0000       2.583447        70.2992 
 209   0.0000       2.605001        70.8857 
 210   0.0000       2.615629        71.1749 
 211   0.0000       2.625670        71.4481 
 212   0.0000       2.633551        71.6626 
 213   0.0000       2.650880        72.1341 
 214   0.0000       2.657958        72.3267 
 215   0.0000       2.666977        72.5721 
 216   0.0000       2.678501        72.8857 
 217   0.0000       2.682626        72.9980 
 218   0.0000       2.690512        73.2126 
 219   0.0000       2.710936        73.7683 
 220   0.0000       2.738640        74.5222 
 221   0.0000       2.750104        74.8341 
 222   0.0000       2.764888        75.2364 
 223   0.0000       2.778246        75.5999 
 224   0.0000       2.786952        75.8368 
 225   0.0000       2.812172        76.5231 
 226   0.0000       2.816709        76.6466 
 227   0.0000       2.822987        76.8174 
 228   0.0000       2.826488        76.9127 
 229   0.0000       2.833606        77.1063 
 230   0.0000       2.851747        77.6000 
 231   0.0000       2.877716        78.3066 
 232   0.0000       2.879196        78.3469 
 233   0.0000       2.888349        78.5960 
 234   0.0000       2.896574        78.8198 
 235   0.0000       2.914643        79.3115 
 236   0.0000       2.919512        79.4440 
 237   0.0000       2.933563        79.8263 
 238   0.0000       2.944311        80.1188 
 239   0.0000       2.965751        80.7022 
 240   0.0000       2.988599        81.3239 
 241   0.0000       2.995772        81.5191 
 242   0.0000       3.016979        82.0962 
 243   0.0000       3.026355        82.3513 
 244   0.0000       3.044475        82.8444 
 245   0.0000       3.058547        83.2273 
 246   0.0000       3.068250        83.4913 
 247   0.0000       3.088551        84.0438 
 248   0.0000       3.104598        84.4804 
 249   0.0000       3.119686        84.8910 
 250   0.0000       3.123324        84.9900 
 251   0.0000       3.129648        85.1621 
 252   0.0000       3.151230        85.7493 
 253   0.0000       3.156575        85.8948 
 254   0.0000       3.168422        86.2171 
 255   0.0000       3.171855        86.3106 
 256   0.0000       3.184106        86.6439 
 257   0.0000       3.222357        87.6848 
 258   0.0000       3.239293        88.1457 
 259   0.0000       3.247373        88.3655 
 260   0.0000       3.277785        89.1931 
 261   0.0000       3.288884        89.4951 
 262   0.0000       3.304716        89.9259 
 263   0.0000       3.322338        90.4054 
 264   0.0000       3.334982        90.7495 
 265   0.0000       3.364209        91.5448 
 266   0.0000       3.372841        91.7797 
 267   0.0000       3.384124        92.0867 
 268   0.0000       3.388221        92.1982 
 269   0.0000       3.398938        92.4898 
 270   0.0000       3.406046        92.6832 
 271   0.0000       3.413176        92.8772 
 272   0.0000       3.450170        93.8839 
 273   0.0000       3.475693        94.5784 
 274   0.0000       3.490626        94.9848 
 275   0.0000       3.503736        95.3415 
 276   0.0000       3.516650        95.6929 
 277   0.0000       3.526963        95.9736 
 278   0.0000       3.556312        96.7722 
 279   0.0000       3.574516        97.2675 
 280   0.0000       3.589218        97.6676 
 281   0.0000       3.601043        97.9893 
 282   0.0000       3.648729        99.2870 
 283   0.0000       3.678935       100.1089 
 284   0.0000       3.686536       100.3157 
 285   0.0000       3.698297       100.6358 
 286   0.0000       3.722592       101.2969 
 287   0.0000       3.739785       101.7647 
 288   0.0000       3.747603       101.9775 
 289   0.0000       3.788789       103.0982 
 290   0.0000       3.811948       103.7284 
 291   0.0000       3.850961       104.7900 
 292   0.0000       3.942629       107.2844 
 293   0.0000       3.975827       108.1877 
 294   0.0000       3.996348       108.7462 
 295   0.0000       4.025517       109.5399 
 296   0.0000       4.051408       110.2444 
 297   0.0000       4.060957       110.5042 
 298   0.0000       4.102641       111.6385 
 299   0.0000       4.112611       111.9098 
 300   0.0000       4.130382       112.3934 
 301   0.0000       4.146999       112.8456 
 302   0.0000       4.200606       114.3043 
 303   0.0000       4.213802       114.6634 
 304   0.0000       4.221107       114.8622 
 305   0.0000       4.225198       114.9735 
 306   0.0000       4.242039       115.4317 
 307   0.0000       4.271484       116.2330 
 308   0.0000       4.307351       117.2090 
 309   0.0000       4.309896       117.2782 
 310   0.0000       4.341411       118.1358 
 311   0.0000       4.380387       119.1964 
 312   0.0000       4.422080       120.3309 
 313   0.0000       4.455525       121.2410 
 314   0.0000       4.600693       125.1912 
 315   0.0000       4.627061       125.9087 
 316   0.0000       4.664959       126.9400 
 317   0.0000       4.684584       127.4740 
 318   0.0000       4.703494       127.9886 
 319   0.0000       4.737979       128.9270 
 320   0.0000       4.748243       129.2063 
 321   0.0000       4.774304       129.9154 
 322   0.0000       4.888898       133.0337 
 323   0.0000       4.904011       133.4449 
 324   0.0000       4.932633       134.2238 
 325   0.0000       5.123311       139.4124 
 326   0.0000       5.133455       139.6884 
 327   0.0000       5.249698       142.8516 
 328   0.0000       5.257249       143.0570 
 329   0.0000       5.264582       143.2566 
 330   0.0000       5.283047       143.7590 
 331   0.0000       5.309707       144.4845 
 332   0.0000       5.345911       145.4696 
 333   0.0000       5.402950       147.0217 
 334   0.0000       5.491292       149.4257 
 335   0.0000       5.541181       150.7832 
 336   0.0000       5.584654       151.9662 
 337   0.0000       5.708714       155.3420 
 338   0.0000       5.733270       156.0102 
 339   0.0000       5.788816       157.5217 
 340   0.0000       5.827639       158.5781 
 341   0.0000       5.965008       162.3161 
 342   0.0000       6.308777       171.6706 
 343   0.0000       6.479964       176.3288 
 344   0.0000       6.697581       182.2504 
 345   0.0000       6.783992       184.6018 
 346   0.0000       6.978690       189.8998 
 347   0.0000       7.164958       194.9684 
 348   0.0000      22.235573       605.0607 
 349   0.0000      22.605273       615.1207 
 350   0.0000      22.671017       616.9097 
 351   0.0000      22.691984       617.4803 
 352   0.0000      22.810237       620.6981 
 353   0.0000      22.913914       623.5193 
 354   0.0000      23.251765       632.7127 
 355   0.0000      23.739378       645.9813 
 356   0.0000      24.032072       653.9459 
 357   0.0000      43.822071      1192.4592 
------------------
MOLECULAR ORBITALS
------------------
                      0         1         2         3         4         5   
                 -19.21324 -10.29375 -10.25839 -10.23790 -10.23749 -10.23619
                   2.00000   2.00000   2.00000   2.00000   2.00000   2.00000
                  --------  --------  --------  --------  --------  --------
  0C   1s        -0.000000  0.000013 -0.000014  0.061453 -0.001765 -0.157623
  0C   2s         0.000001 -0.000006 -0.000027  0.080223 -0.002410 -0.205521
  0C   3s        -0.000004  0.000106 -0.001195  0.004788  0.000580 -0.012124
  0C   4s        -0.000002  0.000543  0.010955  0.007604  0.003075 -0.003494
  0C   5s         0.000702 -0.003938 -0.002457 -0.019919  0.017592  0.011034
  0C   1pz       -0.000000 -0.000016 -0.000020  0.000089 -0.000042  0.000321
  0C   1px       -0.000004  0.000020 -0.000270  0.000423  0.000071  0.000299
  0C   1py        0.000002 -0.000018  0.000006  0.000066 -0.000066  0.000392
  0C   2pz        0.000027  0.000090  0.000001 -0.003815 -0.000892 -0.004974
  0C   2px        0.000086  0.000714  0.009506 -0.004806  0.000183 -0.013305
  0C   2py       -0.000009 -0.000027 -0.001193 -0.004499 -0.001214 -0.004993
  0C   3pz        0.000031  0.000464  0.000203  0.001312 -0.003521 -0.002916
  0C   3px        0.000439 -0.001284  0.001256 -0.006616  0.004266  0.001406
  0C   3py       -0.000034  0.000819  0.000108  0.002599 -0.005265 -0.004088
  0C   1dz2       0.000001 -0.000013 -0.000065  0.000109 -0.000016  0.000228
  0C   1dxz       0.000003 -0.000008  0.000003 -0.000057  0.000041  0.000038
  0C   1dyz      -0.000000  0.000009  0.000065  0.000132  0.000065 -0.000100
  0C   1dx2y2     0.000001  0.000006  0.000072 -0.000277 -0.000002 -0.000312
  0C   1dxy       0.000002 -0.000018 -0.000026 -0.000031  0.000046  0.000149
  0C   2dz2      -0.000026 -0.000079 -0.001384  0.001402 -0.000005  0.002313
  0C   2dxz      -0.000013  0.000007 -0.000429  0.000237  0.001261  0.001815
  0C   2dyz      -0.000025 -0.000108 -0.000612  0.002197  0.000036  0.003042
  0C   2dx2y2     0.000026  0.000220  0.002574 -0.003597  0.000316 -0.005229
  0C   2dxy      -0.000038 -0.000053 -0.001138  0.000871  0.001634  0.003291
  0C   1f0       -0.000002 -0.000003 -0.000005  0.000275  0.000047  0.000583
  0C   1f+1      -0.000001 -0.000007 -0.000129  0.000559 -0.000004  0.000161
  0C   1f-1       0.000002  0.000000  0.000053 -0.000036 -0.000043 -0.000232
  0C   1f+2      -0.000000  0.000007 -0.000035 -0.000176  0.000067  0.000205
  0C   1f-2      -0.000002  0.000005  0.000163 -0.000204 -0.000064 -0.000508
  0C   1f+3      -0.000002 -0.000004 -0.000071  0.000695 -0.000032  0.000105
  0C   1f-3       0.000005  0.000004  0.000100  0.000104 -0.000028  0.000167
  1C   1s        -0.000001  0.000025 -0.006538  0.462764 -0.010310  0.029280
  1C   2s         0.000004 -0.000011 -0.008714  0.602832 -0.013469  0.038054
  1C   3s        -0.000123  0.000577  0.001582  0.037433 -0.002238  0.001967
  1C   4s         0.000510 -0.001493 -0.016950 -0.005790  0.016443  0.004274
  1C   5s        -0.000841  0.005974  0.010387  0.023578 -0.025581 -0.002440
  1C   1pz        0.000009 -0.000011 -0.000039 -0.000468  0.000160 -0.000069
  1C   1px       -0.000007 -0.000005 -0.000380 -0.000323 -0.000021  0.000432
  1C   1py        0.000001 -0.000024 -0.000004 -0.000601  0.000218 -0.000148
  1C   2pz       -0.000129 -0.000287  0.001881 -0.003728 -0.006819  0.000740
  1C   2px        0.000293  0.000987  0.007766  0.005133  0.004460 -0.016637
  1C   2py       -0.000061 -0.000452  0.001548 -0.005684 -0.009745  0.003115
  1C   3pz       -0.000183 -0.000806 -0.002410 -0.000845  0.003216  0.000134
  1C   3px        0.000240 -0.000873  0.000939 -0.004416  0.000236  0.000737
  1C   3py       -0.000240 -0.000887 -0.003377 -0.000584  0.004305  0.000094
  1C   1dz2      -0.000005 -0.000006 -0.000046 -0.000713 -0.000072 -0.000179
  1C   1dxz      -0.000003  0.000004 -0.000062  0.000004 -0.000091  0.000038
  1C   1dyz       0.000002 -0.000016  0.000178  0.001045  0.000102  0.000124
  1C   1dx2y2    -0.000002  0.000008 -0.000045  0.000565  0.000035  0.000234
  1C   1dxy       0.000000  0.000015 -0.000105 -0.000324 -0.000151 -0.000029
  1C   2dz2       0.000026  0.000119  0.001207  0.000313  0.000562 -0.001464
  1C   2dxz      -0.000060 -0.000420 -0.002562 -0.001865 -0.001027  0.002882
  1C   2dyz       0.000108 -0.000131 -0.000663  0.001392  0.003076 -0.002029
  1C   2dx2y2     0.000028 -0.000179 -0.002292 -0.001864 -0.003072  0.004430
  1C   2dxy      -0.000079 -0.000569 -0.002783 -0.002314 -0.001144  0.003151
  1C   1f0        0.000004 -0.000013  0.000243 -0.000102  0.000195  0.000010
  1C   1f+1       0.000001 -0.000008 -0.000088  0.000344 -0.000035  0.000388
  1C   1f-1      -0.000012  0.000013  0.000058  0.000205 -0.000101 -0.000024
  1C   1f+2       0.000001 -0.000025  0.000027 -0.000260  0.000212 -0.000116
  1C   1f-2       0.000021 -0.000005  0.000653  0.000949  0.000087 -0.000239
  1C   1f+3      -0.000003 -0.000012  0.000297  0.000901  0.000031  0.000370
  1C   1f-3       0.000002  0.000012  0.000249  0.000054 -0.000021 -0.000084
  2C   1s        -0.000001  0.000093 -0.467068 -0.006465  0.006613 -0.000959
  2C   2s         0.000005  0.000008 -0.607979 -0.008205  0.008386 -0.001329
  2C   3s         0.000092 -0.000211 -0.044032 -0.003466  0.003629  0.000447
  2C   4s        -0.001026  0.011335  0.029888  0.025811 -0.026934  0.002954
  2C   5s         0.004653 -0.029082  0.051374 -0.082569  0.087277  0.049365
  2C   1pz        0.000009  0.000016 -0.000074  0.000365  0.000413  0.000005
  2C   1px       -0.000021  0.000108 -0.000709 -0.000343  0.000271  0.000185
  2C   1py       -0.000006 -0.000004 -0.000010  0.000535  0.000521 -0.000017
  2C   2pz       -0.000198  0.000956 -0.000342 -0.008368 -0.011100 -0.001445
  2C   2px        0.000318  0.010106 -0.003971  0.015811 -0.014499 -0.018474
  2C   2py        0.000119  0.000194  0.000001 -0.013286 -0.013079  0.000417
  2C   3pz        0.000521 -0.000942  0.004618  0.000908  0.007232  0.002626
  2C   3px        0.002507 -0.007326  0.039386 -0.028201  0.028905  0.026006
  2C   3py        0.000311 -0.000969  0.001245  0.004844  0.006013  0.000146
  2C   1dz2      -0.000017 -0.000037  0.000767  0.000090 -0.000101 -0.000059
  2C   1dxz       0.000008 -0.000000 -0.000195 -0.000029  0.000003  0.000016
  2C   1dyz       0.000003 -0.000020 -0.001033 -0.000236  0.000243  0.000096
  2C   1dx2y2    -0.000009  0.000075 -0.000716 -0.000014  0.000023  0.000045
  2C   1dxy       0.000008  0.000008  0.000098  0.000005 -0.000045 -0.000005
  2C   2dz2       0.000117 -0.001874 -0.002178 -0.002437  0.005237  0.002280
  2C   2dxz      -0.000375  0.000730  0.000574  0.008689  0.005349 -0.001312
  2C   2dyz      -0.000217 -0.000262  0.001445 -0.000212  0.002519  0.003034
  2C   2dx2y2     0.000158  0.003492  0.002951  0.006476 -0.008890 -0.006002
  2C   2dxy      -0.000054  0.000266 -0.000276  0.010238  0.009192 -0.000781
  2C   1f0        0.000029 -0.000026  0.000053  0.000645  0.000692  0.000038
  2C   1f+1      -0.000011 -0.000141  0.000213 -0.000256  0.000044  0.000208
  2C   1f-1       0.000001  0.000001  0.000036 -0.000110 -0.000315 -0.000025
  2C   1f+2      -0.000046  0.000029 -0.000091  0.000358  0.000359 -0.000058
  2C   1f-2       0.000017  0.000067  0.000179  0.000655 -0.000667 -0.000187
  2C   1f+3       0.000014 -0.000146  0.000383  0.000176 -0.000107  0.000179
  2C   1f-3      -0.000004 -0.000023  0.000042  0.000342  0.000153 -0.000026
  3C   1s        -0.000000  0.000024 -0.006401 -0.010676 -0.461865  0.029870
  3C   2s         0.000001 -0.000011 -0.008537 -0.013870 -0.601663  0.038828
  3C   3s        -0.000097  0.000546  0.001595  0.000527 -0.037436  0.002008
  3C   4s         0.000850 -0.001521 -0.016688 -0.015977  0.006472  0.005365
  3C   5s         0.000324  0.004020  0.012352  0.023440 -0.023683 -0.003729
  3C   1pz       -0.000007  0.000019 -0.000041  0.000145 -0.000397  0.000145
  3C   1px       -0.000000 -0.000002 -0.000387  0.000012  0.000434  0.000373
  3C   1py       -0.000002  0.000018 -0.000003  0.000192 -0.000606  0.000147
  3C   2pz        0.000324  0.000320 -0.000049 -0.007819 -0.004437 -0.003551
  3C   2px        0.000224  0.000706  0.008267 -0.003239 -0.004169 -0.015295
  3C   2py        0.000329  0.000391 -0.001168 -0.010092 -0.005433 -0.002787
  3C   3pz        0.000101  0.000369  0.002903  0.002888  0.000153 -0.000121
  3C   3px       -0.000204 -0.000517  0.000154 -0.000677  0.004486  0.000793
  3C   3py        0.000217  0.000672  0.003874  0.003976 -0.000389 -0.000264
  3C   1dz2      -0.000000  0.000005 -0.000027  0.000064  0.000646 -0.000163
  3C   1dxz       0.000006 -0.000014  0.000064 -0.000127 -0.000328  0.000074
  3C   1dyz       0.000007 -0.000017  0.000201 -0.000182 -0.001085  0.000137
  3C   1dx2y2     0.000000  0.000015 -0.000063 -0.000031 -0.000511  0.000210
  3C   1dxy       0.000010 -0.000008  0.000066 -0.000132 -0.000119  0.000020
  3C   2dz2       0.000024  0.000174  0.001993 -0.000842 -0.000861 -0.002037
  3C   2dxz       0.000072  0.000400  0.001421 -0.000115 -0.001212 -0.001092
  3C   2dyz       0.000136 -0.000041  0.000037 -0.003348 -0.001764 -0.002366
  3C   2dx2y2    -0.000067 -0.000221 -0.002962  0.003399  0.002199  0.004553
  3C   2dxy       0.000004  0.000538  0.002741 -0.000462 -0.001919 -0.002283
  3C   1f0       -0.000004  0.000012 -0.000257  0.000193 -0.000271  0.000157
  3C   1f+1       0.000016 -0.000006  0.000019 -0.000005 -0.000262  0.000306
  3C   1f-1       0.000006 -0.000009  0.000163 -0.000126 -0.000115 -0.000041
  3C   1f+2       0.000001  0.000023 -0.000124  0.000211  0.000112 -0.000086
  3C   1f-2       0.000017  0.000006  0.000673 -0.000080 -0.000941 -0.000235
  3C   1f+3      -0.000002 -0.000004  0.000293 -0.000013 -0.000899  0.000318
  3C   1f-3       0.000001 -0.000015 -0.000053 -0.000048 -0.000249  0.000039
  4C   1s        -0.000000  0.000012 -0.000011 -0.001660 -0.067210 -0.123188
  4C   2s         0.000001 -0.000006 -0.000024 -0.002061 -0.087729 -0.160659
  4C   3s         0.000020  0.000106 -0.001182 -0.000835 -0.005209 -0.009434
  4C   4s        -0.000102  0.000466  0.010994 -0.003515 -0.007392 -0.003476
  4C   5s         0.000196 -0.003028 -0.003268 -0.016110  0.020205  0.012723
  4C   1pz        0.000002  0.000013 -0.000033 -0.000058 -0.000003 -0.000226
  4C   1px       -0.000000  0.000015 -0.000266 -0.000073 -0.000429  0.000405
  4C   1py       -0.000000  0.000021 -0.000010 -0.000068  0.000051 -0.000356
  4C   2pz       -0.000035  0.000162  0.001875 -0.000967 -0.002706  0.002491
  4C   2px        0.000064  0.000523  0.009472 -0.000014  0.005485 -0.014277
  4C   2py       -0.000066  0.000094  0.001295 -0.001295 -0.004332  0.005201
  4C   3pz        0.000123 -0.000673 -0.000111 -0.004055  0.002744  0.003339
  4C   3px       -0.000031 -0.000668  0.001055 -0.002956  0.006241  0.000712
  4C   3py        0.000142 -0.000793 -0.000290 -0.005054  0.002873  0.004391
  4C   1dz2       0.000003 -0.000001 -0.000060  0.000025 -0.000104  0.000135
  4C   1dxz      -0.000001  0.000013  0.000034  0.000034  0.000041 -0.000172
  4C   1dyz      -0.000000  0.000016  0.000069 -0.000058 -0.000143 -0.000049
  4C   1dx2y2     0.000001  0.000004  0.000068  0.000002  0.000271 -0.000240
  4C   1dxy      -0.000002  0.000012  0.000017  0.000056  0.000009 -0.000162
  4C   2dz2      -0.000011 -0.000059 -0.001070  0.000412 -0.001099  0.001304
  4C   2dxz       0.000017  0.000079  0.001413  0.001076  0.001395 -0.003675
  4C   2dyz      -0.000032 -0.000079 -0.000369  0.000275 -0.001935  0.002309
  4C   2dx2y2     0.000012  0.000144  0.002392 -0.000572  0.003363 -0.004539
  4C   2dxy       0.000001  0.000052  0.001367  0.001571  0.001358 -0.004220
  4C   1f0        0.000004 -0.000008 -0.000051  0.000042 -0.000042 -0.000453
  4C   1f+1       0.000001  0.000001 -0.000099 -0.000022 -0.000612  0.000322
  4C   1f-1      -0.000001  0.000001  0.000004 -0.000017  0.000016  0.000056
  4C   1f+2      -0.000003  0.000005  0.000080  0.000058  0.000188 -0.000275
  4C   1f-2       0.000002  0.000003  0.000196  0.000081  0.000181 -0.000576
  4C   1f+3      -0.000001 -0.000004 -0.000052  0.000018 -0.000693 -0.000002
  4C   1f-3       0.000006 -0.000002 -0.000056 -0.000004  0.000104 -0.000299
  5C   1s        -0.000000  0.000010  0.000171  0.008866 -0.013136 -0.419918
  5C   2s         0.000001 -0.000004  0.000121  0.011589 -0.017157 -0.547222
  5C   3s        -0.000030  0.000142  0.000818  0.001276 -0.001636 -0.032544
  5C   4s         0.000226 -0.000043  0.001097 -0.006248  0.006465 -0.000672
  5C   5s        -0.000281  0.002451  0.004017  0.012846 -0.013533 -0.021893
  5C   1pz        0.000002 -0.000001  0.000017  0.000177  0.000148 -0.000086
  5C   1px       -0.000002  0.000023  0.000138  0.000104 -0.000155 -0.000633
  5C   1py        0.000001 -0.000002  0.000005  0.000225  0.000218 -0.000035
  5C   2pz       -0.000010  0.000078  0.000002 -0.005117 -0.004172 -0.000018
  5C   2px        0.000058  0.000118  0.000695 -0.003381  0.004628 -0.004352
  5C   2py       -0.000023  0.000069 -0.000084 -0.006432 -0.006192  0.000536
  5C   3pz        0.000069  0.000022  0.000125 -0.000308 -0.001120 -0.000299
  5C   3px       -0.000161  0.000813  0.001360  0.003753 -0.003781 -0.004248
  5C   3py        0.000134 -0.000069 -0.000007 -0.000895 -0.001017  0.000144
  5C   1dz2       0.000000 -0.000008 -0.000029  0.000011 -0.000013  0.000484
  5C   1dxz       0.000001  0.000006  0.000006 -0.000011 -0.000017 -0.000087
  5C   1dyz       0.000001 -0.000000  0.000055 -0.000094  0.000086 -0.001015
  5C   1dx2y2    -0.000001  0.000015  0.000018  0.000034 -0.000035 -0.000226
  5C   1dxy      -0.000002 -0.000002 -0.000005 -0.000008 -0.000029  0.000117
  5C   2dz2      -0.000023  0.000074  0.000399 -0.000096 -0.000618  0.000206
  5C   2dxz      -0.000008 -0.000016 -0.000216 -0.002010 -0.001834  0.000237
  5C   2dyz       0.000021  0.000051  0.000517 -0.000665  0.000078 -0.000859
  5C   2dx2y2     0.000000 -0.000156 -0.001033  0.000036  0.000506  0.000227
  5C   2dxy      -0.000008  0.000025 -0.000118 -0.002633 -0.002647  0.000415
  5C   1f0        0.000001 -0.000003  0.000004  0.000207  0.000178 -0.000152
  5C   1f+1      -0.000000 -0.000009  0.000010  0.000022 -0.000081 -0.000414
  5C   1f-1       0.000000  0.000002  0.000006 -0.000092 -0.000058 -0.000022
  5C   1f+2       0.000000  0.000001 -0.000007  0.000127  0.000141  0.000134
  5C   1f-2       0.000002  0.000004  0.000035 -0.000089  0.000117 -0.000193
  5C   1f+3       0.000006 -0.000010  0.000030  0.000030 -0.000002 -0.000667
  5C   1f-3      -0.000001  0.000001  0.000007  0.000030  0.000055 -0.000059
  6H   1s        -0.000002  0.000017  0.000091  0.000015  0.000123  0.000173
  6H   2s         0.000006  0.000083  0.000760 -0.001153  0.001311  0.001645
  6H   3s         0.000069 -0.000364  0.000799 -0.000635  0.001694  0.001210
  6H   1pz        0.000001 -0.000002 -0.000061 -0.000028 -0.000111 -0.000637
  6H   1px        0.000002  0.000026  0.000251 -0.000627  0.000054 -0.000090
  6H   1py       -0.000002 -0.000003 -0.000114  0.000042 -0.000156 -0.000844
  7H   1s        -0.000001  0.000030 -0.000040 -0.000544  0.000095  0.000048
  7H   2s        -0.000109  0.000617  0.002268 -0.000510  0.000053  0.000941
  7H   3s         0.000299 -0.000126 -0.000305 -0.002763  0.000814  0.000101
  7H   1pz        0.000009 -0.000081 -0.000255  0.000963 -0.000164 -0.000009
  7H   1px        0.000005 -0.000013  0.000329  0.001039  0.000134 -0.000436
  7H   1py        0.000024 -0.000096 -0.000386  0.001162 -0.000238  0.000043
  8H   1s        -0.000006  0.000035 -0.000046 -0.000068  0.000545  0.000059
  8H   2s        -0.000037  0.000582  0.002254 -0.000019  0.000503  0.000881
  8H   3s         0.000153 -0.000137 -0.000193 -0.000777  0.002870  0.000173
  8H   1pz       -0.000006  0.000062  0.000316 -0.000152  0.000724 -0.000067
  8H   1px        0.000009 -0.000036  0.000271 -0.000154 -0.001240 -0.000379
  8H   1py       -0.000004  0.000100  0.000388 -0.000185  0.001135 -0.000039
  9H   1s        -0.000000  0.000017  0.000093 -0.000123 -0.000001  0.000139
  9H   2s         0.000018  0.000090  0.000749 -0.001222  0.001220  0.001671
  9H   3s         0.000078 -0.000336  0.000726 -0.001614  0.000708  0.001103
  9H   1pz       -0.000002  0.000006  0.000109 -0.000108  0.000120  0.000538
  9H   1px        0.000003  0.000023  0.000231 -0.000003  0.000623 -0.000300
  9H   1py        0.000002  0.000009  0.000116 -0.000145  0.000081  0.000762
 10H   1s        -0.000000  0.000019  0.000087 -0.000085  0.000092  0.000462
 10H   2s        -0.000029  0.000200  0.000867 -0.000650  0.000692  0.001022
 10H   3s        -0.000012 -0.000016  0.000343 -0.000052  0.000058  0.001217
 10H   1pz       -0.000003  0.000002  0.000013 -0.000146 -0.000094  0.000200
 10H   1px       -0.000005  0.000034  0.000130 -0.000214  0.000270  0.001694
 10H   1py       -0.000001  0.000004 -0.000001 -0.000168 -0.000161  0.000052
 11C   1s         0.000001  0.000023 -0.003885  0.000025 -0.000028 -0.000123
 11C   2s        -0.000005 -0.000140 -0.004966 -0.000148  0.000151 -0.000101
 11C   3s        -0.000203  0.006698 -0.007513  0.006258 -0.006595 -0.004501
 11C   4s         0.003126 -0.083662  0.093149 -0.051565  0.054553  0.048284
 11C   5s         0.003233 -0.061203  0.037522 -0.004571  0.006347 -0.016851
 11C   1pz        0.000041  0.000038  0.000035  0.000016  0.000035 -0.000006
 11C   1px        0.000028  0.000188  0.000350 -0.000111  0.000111 -0.000033
 11C   1py       -0.000018 -0.000007 -0.000001  0.000035  0.000034 -0.000002
 11C   2pz       -0.000638 -0.002914  0.005284 -0.001102 -0.001200  0.000679
 11C   2px        0.001745 -0.028449  0.051391  0.001122 -0.001010  0.005865
 11C   2py        0.000298 -0.000024  0.000081 -0.001544 -0.001598 -0.000003
 11C   3pz        0.000358 -0.005001  0.009373 -0.007653  0.006457  0.004585
 11C   3px        0.006775 -0.047780  0.094268 -0.068035  0.072884  0.045872
 11C   3py       -0.000315  0.000849  0.000114 -0.001402 -0.000814  0.000304
 11C   1dz2       0.000052 -0.000170  0.000001 -0.000027  0.000018 -0.000025
 11C   1dxz       0.000068  0.000118 -0.000003  0.000002 -0.000024  0.000004
 11C   1dyz      -0.000014 -0.000011  0.000022 -0.000074  0.000079  0.000059
 11C   1dx2y2     0.000045  0.000306 -0.000007  0.000085 -0.000082  0.000008
 11C   1dxy      -0.000005 -0.000051  0.000002 -0.000011 -0.000023 -0.000006
 11C   2dz2      -0.000664  0.008126 -0.009776  0.006277 -0.005905 -0.005324
 11C   2dxz      -0.000827 -0.003063  0.003522 -0.000252  0.004219  0.001980
 11C   2dyz       0.000071  0.000037 -0.000275  0.000554 -0.000012 -0.000422
 11C   2dx2y2     0.000533 -0.014435  0.017424 -0.010886  0.011010  0.009687
 11C   2dxy       0.000174  0.000075  0.000013  0.002485  0.002804  0.000128
 11C   1f0       -0.000023 -0.000032  0.000096  0.000032  0.000068  0.000008
 11C   1f+1      -0.000020 -0.000037  0.000364 -0.000131  0.000056  0.000047
 11C   1f-1      -0.000008  0.000011  0.000030  0.000067  0.000076  0.000023
 11C   1f+2       0.000032  0.000042 -0.000137 -0.000133 -0.000185 -0.000022
 11C   1f-2       0.000000 -0.000011  0.000152 -0.000080  0.000002  0.000143
 11C   1f+3      -0.000021 -0.000031  0.000576 -0.000170  0.000122  0.000136
 11C   1f-3      -0.000020  0.000046  0.000040  0.000207  0.000208  0.000019
 12C   1s        -0.000007 -0.001347  0.000005 -0.000098  0.000112  0.000055
 12C   2s         0.000035 -0.001609 -0.000233 -0.000102  0.000117  0.000037
 12C   3s        -0.000325 -0.007920  0.008255 -0.001047  0.001098  0.001825
 12C   4s        -0.002719  0.082595 -0.106107  0.032568 -0.034173 -0.036607
 12C   5s        -0.014108  0.066774 -0.099724  0.066758 -0.071555 -0.035825
 12C   1pz        0.000136 -0.000029 -0.000025 -0.000015  0.000038  0.000016
 12C   1px       -0.000125 -0.000370 -0.000349 -0.000152  0.000155  0.000082
 12C   1py       -0.000025 -0.000021  0.000003  0.000021  0.000009 -0.000002
 12C   2pz        0.000067 -0.002889  0.005048 -0.002070  0.000717  0.001592
 12C   2px        0.002189 -0.026678  0.048976 -0.013555  0.014548  0.015967
 12C   2py       -0.000020  0.000349 -0.000073 -0.000898 -0.001043 -0.000065
 12C   3pz        0.000826 -0.004655  0.005152 -0.002566  0.003685  0.001267
 12C   3px        0.000664 -0.049442  0.048565 -0.027612  0.030211  0.010867
 12C   3py        0.000161 -0.000959  0.000007  0.000659  0.000450 -0.000130
 12C   1dz2      -0.000053 -0.000017 -0.000089 -0.000030  0.000024  0.000029
 12C   1dxz       0.000186 -0.000006  0.000038 -0.000035 -0.000041 -0.000009
 12C   1dyz       0.000013  0.000004 -0.000027  0.000034 -0.000047 -0.000042
 12C   1dx2y2    -0.000067 -0.000002  0.000156  0.000032 -0.000028 -0.000028
 12C   1dxy      -0.000030  0.000005 -0.000017 -0.000045 -0.000056 -0.000003
 12C   2dz2       0.000372 -0.009165  0.009509 -0.001975  0.002287  0.002785
 12C   2dxz      -0.001892  0.003094 -0.003368  0.001383 -0.000054 -0.000937
 12C   2dyz      -0.000066  0.000008  0.000067 -0.000071  0.000277  0.000156
 12C   2dx2y2     0.000149  0.016218 -0.016756  0.003660 -0.003973 -0.004983
 12C   2dxy       0.000389  0.000231  0.000024  0.000839  0.001001  0.000047
 12C   1f0        0.000102 -0.000126 -0.000073 -0.000007  0.000007 -0.000010
 12C   1f+1       0.000066 -0.000758 -0.000249 -0.000026  0.000015 -0.000048
 12C   1f-1       0.000008 -0.000029  0.000005 -0.000001 -0.000005  0.000001
 12C   1f+2      -0.000133  0.000121  0.000096  0.000013  0.000003  0.000015
 12C   1f-2      -0.000039  0.000027  0.000029  0.000030 -0.000020 -0.000002
 12C   1f+3      -0.000188 -0.000917 -0.000337 -0.000007  0.000010 -0.000069
 12C   1f-3      -0.000015 -0.000131  0.000008 -0.000014  0.000003  0.000007
 13C   1s        -0.000024 -0.467244 -0.000067  0.000015 -0.000016 -0.000009
 13C   2s         0.000127 -0.608585 -0.000212  0.000062 -0.000065 -0.000036
 13C   3s         0.001695 -0.033204  0.000917 -0.000250  0.000297  0.000044
 13C   4s        -0.007177  0.000771  0.006079 -0.000684  0.000499  0.002521
 13C   5s         0.013810  0.012396 -0.017759  0.007828 -0.009407 -0.001883
 13C   1pz       -0.000166  0.000845 -0.000069  0.000033 -0.000011 -0.000011
 13C   1px        0.000023  0.000669 -0.000228  0.000038 -0.000042 -0.000021
 13C   1py       -0.000002 -0.000046 -0.000008  0.000026  0.000018  0.000003
 13C   2pz        0.005408 -0.000023  0.000240 -0.000355  0.000024 -0.000018
 13C   2px       -0.001788  0.008063 -0.005619  0.001247 -0.001158 -0.001918
 13C   2py       -0.000195  0.000751 -0.000359 -0.000167 -0.000481 -0.000201
 13C   3pz       -0.001177 -0.001024 -0.000225  0.000098 -0.000334 -0.000155
 13C   3px       -0.001069 -0.006077  0.003748 -0.001301  0.001669 -0.000035
 13C   3py       -0.000547  0.000002  0.000329 -0.000350 -0.000038  0.000025
 13C   1dz2      -0.000271 -0.000022 -0.000045  0.000017 -0.000016 -0.000018
[...]
<pd|pd>:  207046 b  201968 skpd ( 97.5%)    0.426 s ( 0.084 ms/b)
<pd|pf>:  202545 b  197861 skpd ( 97.7%)    0.649 s ( 0.139 ms/b)
<pd|dd>:  112525 b  109612 skpd ( 97.4%)    0.391 s ( 0.134 ms/b)
<pd|df>:  104166 b  101732 skpd ( 97.7%)    0.526 s ( 0.216 ms/b)
<pd|ff>:   28935 b   27977 skpd ( 96.7%)    0.359 s ( 0.375 ms/b)
<pf|pf>:   49770 b   48628 skpd ( 97.7%)    0.258 s ( 0.226 ms/b)
<pf|dd>:   55125 b   53812 skpd ( 97.6%)    0.300 s ( 0.229 ms/b)
<pf|df>:   51030 b   49914 skpd ( 97.8%)    0.420 s ( 0.376 ms/b)
<pf|ff>:   14175 b   13737 skpd ( 96.9%)    0.294 s ( 0.670 ms/b)
<dd|dd>:   15400 b   14989 skpd ( 97.3%)    0.109 s ( 0.265 ms/b)
<dd|df>:   28350 b   27689 skpd ( 97.7%)    0.280 s ( 0.423 ms/b)
<dd|ff>:    7875 b    7620 skpd ( 96.8%)    0.164 s ( 0.644 ms/b)
<df|df>:   13203 b   12885 skpd ( 97.6%)    0.182 s ( 0.572 ms/b)
<df|ff>:    7290 b    7081 skpd ( 97.1%)    0.209 s ( 0.999 ms/b)
<ff|ff>:    1035 b    1002 skpd ( 96.8%)    0.065 s ( 1.968 ms/b)
done
Exchange-Correlation gradient            ... done
                 ---------------------------
                 EXCITED STATE GRADIENT DONE
                 ---------------------------


------------------
CARTESIAN GRADIENT
------------------

   1   C   :    0.037999602   -0.003790992    0.000218654
   2   C   :   -0.036384813   -0.008372512   -0.007713928
   3   C   :   -0.019649607   -0.000619442   -0.001677976
   4   C   :   -0.037458658    0.007795065   -0.000194281
   5   C   :    0.037128479    0.004529077    0.007505340
   6   C   :    0.010841700    0.000104345    0.001221788
   7   H   :    0.000426377    0.000306119    0.000047741
   8   H   :    0.000150174    0.000212676    0.000188355
   9   H   :    0.000257313   -0.000130416   -0.000197891
  10   H   :    0.000425306   -0.000401961    0.000294849
  11   H   :   -0.000526015    0.000115297   -0.000192326
  12   C   :    0.056890352    0.001431133    0.004292789
  13   C   :   -0.052842941   -0.003863800   -0.003964395
  14   C   :    0.013721516    0.005734805   -0.005317057
  15   O   :   -0.008177943    0.001154454    0.000858623
  16   H   :    0.002475507   -0.003275589    0.002606678
  17   H   :   -0.001993704   -0.002722503    0.000681739
  18   H   :   -0.003196530    0.001759258    0.001299213

Difference to translation invariance:
           :    0.0000861166   -0.0000349852   -0.0000420854

Norm of the cartesian gradient     ...    0.1130914717
RMS gradient                       ...    0.0153898000
MAX gradient                       ...    0.0568903520

-------
TIMINGS
-------

Total TD-DFT gradient time         ...      122.768 sec

Fock matrix formation       ....      13.498 sec  ( 11.0%)
  Coulomb formation         ....      12.711 sec  ( 94.2% of F)
  XC integration            ....       0.786 sec  (  5.8% of F)
Z-vector equation           ....      82.278 sec  ( 67.0%)
One electron gradient       ....       0.986 sec  (  0.8%)
Prescreening matrices       ....       1.795 sec  (  1.5%)
Two electron gradient       ....      16.239 sec  ( 13.2%)
XC gradient                 ....       7.435 sec  (  6.1%)

		************************************************************
		*      Energy Gradient Calculation For State    9 *
		************************************************************


           ************************************************************
           *        Program running with 28 parallel MPI-processes    *
           *              working on a common directory               *
           ************************************************************
------------------------------------------------------------------------------
                         ORCA SCF GRADIENT CALCULATION
------------------------------------------------------------------------------


-------------------
TD-DFT GRADIENT
-------------------

Reference wavefunction             ... RHF
State of interest                  ... 9
Basis dimension                    ... 358
DFT-XC contribution needed         ... YES
RI-approximation                   ... OFF
CIS-vectors being read from        ... p1r1.cis

 => Number of Vectors found: 20
 => Orbital Window: 10...34 -> 35...357

Reading the RPA file                     ... done
Norm of the RPA vector                   ... 1.000000000
Making the RPA (pseudo)densities         ... done
Making operators G(D) and Q(T)           ... done
Transforming the Fock operators          ... done
Making the frozen-core relaxed density   ... done
Constructing the G(H) operator           ... done
Transforming the G(H) operator           ... done
Calculating the RPA Lagrangian           ... done
Solving the Z-vector equations           ... done
Finalizing the relaxed density           ... done
Storing the relaxed density              ... done
Constructing the G(Z) operator           ... done
Transforming the G(Z) operator           ... done
Making the W-matrix                      ... done
Finalizing the W-matrix                  ... done
Transforming the W-matrix                ... done
Nuclear repulsion gradient               ... done
One-Electron gradient                    ... done
Prescreening matrices                    ... done
Two-Electron gradient (4-center)         ... <ss|ss>: 2362051 b 2306147 skpd ( 97.6%)    0.049 s ( 0.001 ms/b)
<ss|sp>: 5082647 b 4960180 skpd ( 97.6%)    0.136 s ( 0.001 ms/b)
<ss|sd>: 2618465 b 2558953 skpd ( 97.7%)    0.097 s ( 0.002 ms/b)
<ss|sf>: 1266859 b 1240013 skpd ( 97.9%)    0.066 s ( 0.002 ms/b)
<ss|pp>: 1384201 b 1349148 skpd ( 97.5%)    0.105 s ( 0.003 ms/b)
<ss|pd>: 1397239 b 1363505 skpd ( 97.6%)    0.116 s ( 0.003 ms/b)
<ss|pf>:  684495 b  668877 skpd ( 97.7%)    0.084 s ( 0.005 ms/b)
<ss|dd>:  380275 b  370592 skpd ( 97.5%)    0.047 s ( 0.005 ms/b)
<ss|df>:  352026 b  344134 skpd ( 97.8%)    0.059 s ( 0.008 ms/b)
<ss|ff>:   97785 b   94684 skpd ( 96.8%)    0.038 s ( 0.012 ms/b)
<sp|sp>: 2736630 b 2668747 skpd ( 97.5%)    0.158 s ( 0.002 ms/b)
<sp|sd>: 2818495 b 2752547 skpd ( 97.7%)    0.251 s ( 0.004 ms/b)
<sp|sf>: 1363637 b 1333473 skpd ( 97.8%)    0.188 s ( 0.006 ms/b)
<sp|pp>: 1489943 b 1451574 skpd ( 97.4%)    0.314 s ( 0.008 ms/b)
<sp|pd>: 1503977 b 1466702 skpd ( 97.5%)    0.351 s ( 0.009 ms/b)
<sp|pf>:  736785 b  719323 skpd ( 97.6%)    0.265 s ( 0.015 ms/b)
<sp|dd>:  409325 b  398442 skpd ( 97.3%)    0.148 s ( 0.014 ms/b)
<sp|df>:  378918 b  369958 skpd ( 97.6%)    0.190 s ( 0.021 ms/b)
<sp|ff>:  105255 b  101730 skpd ( 96.7%)    0.128 s ( 0.036 ms/b)
<sd|sd>:  726615 b  710690 skpd ( 97.8%)    0.103 s ( 0.006 ms/b)
<sd|sf>:  702515 b  688450 skpd ( 98.0%)    0.155 s ( 0.011 ms/b)
<sd|pp>:  767585 b  748683 skpd ( 97.5%)    0.286 s ( 0.015 ms/b)
<sd|pd>:  774815 b  756766 skpd ( 97.7%)    0.300 s ( 0.017 ms/b)
<sd|pf>:  379575 b  371322 skpd ( 97.8%)    0.221 s ( 0.027 ms/b)
<sd|dd>:  210875 b  205651 skpd ( 97.5%)    0.131 s ( 0.025 ms/b)
<sd|df>:  195210 b  190904 skpd ( 97.8%)    0.170 s ( 0.040 ms/b)
<sd|ff>:   54225 b   52523 skpd ( 96.9%)    0.111 s ( 0.065 ms/b)
<sf|sf>:  170236 b  167071 skpd ( 98.1%)    0.062 s ( 0.020 ms/b)
<sf|pp>:  371371 b  362539 skpd ( 97.6%)    0.225 s ( 0.026 ms/b)
<sf|pd>:  374869 b  366660 skpd ( 97.8%)    0.240 s ( 0.029 ms/b)
<sf|pf>:  183645 b  179983 skpd ( 98.0%)    0.180 s ( 0.049 ms/b)
<sf|dd>:  102025 b   99724 skpd ( 97.7%)    0.095 s ( 0.041 ms/b)
<sf|df>:   94446 b   92564 skpd ( 98.0%)    0.127 s ( 0.068 ms/b)
<sf|ff>:   26235 b   25487 skpd ( 97.1%)    0.093 s ( 0.124 ms/b)
<pp|pp>:  203203 b  197457 skpd ( 97.2%)    0.156 s ( 0.027 ms/b)
<pp|pd>:  409591 b  398913 skpd ( 97.4%)    0.302 s ( 0.028 ms/b)
<pp|pf>:  200655 b  195581 skpd ( 97.5%)    0.241 s ( 0.047 ms/b)
<pp|dd>:  111475 b  108323 skpd ( 97.2%)    0.140 s ( 0.044 ms/b)
<pp|df>:  103194 b  100576 skpd ( 97.5%)    0.186 s ( 0.071 ms/b)
<pp|ff>:   28665 b   27637 skpd ( 96.4%)    0.125 s ( 0.122 ms/b)
<pd|pd>:  207046 b  201883 skpd ( 97.5%)    0.234 s ( 0.045 ms/b)
<pd|pf>:  202545 b  197840 skpd ( 97.7%)    0.354 s ( 0.075 ms/b)
<pd|dd>:  112525 b  109537 skpd ( 97.3%)    0.220 s ( 0.074 ms/b)
<pd|df>:  104166 b  101714 skpd ( 97.6%)    0.284 s ( 0.116 ms/b)
<pd|ff>:   28935 b   27962 skpd ( 96.6%)    0.210 s ( 0.216 ms/b)
<pf|pf>:   49770 b   48605 skpd ( 97.7%)    0.141 s ( 0.121 ms/b)
<pf|dd>:   55125 b   53762 skpd ( 97.5%)    0.165 s ( 0.121 ms/b)
<pf|df>:   51030 b   49904 skpd ( 97.8%)    0.228 s ( 0.202 ms/b)
<pf|ff>:   14175 b   13726 skpd ( 96.8%)    0.164 s ( 0.366 ms/b)
<dd|dd>:   15400 b   14986 skpd ( 97.3%)    0.059 s ( 0.141 ms/b)
<dd|df>:   28350 b   27677 skpd ( 97.6%)    0.154 s ( 0.228 ms/b)
<dd|ff>:    7875 b    7617 skpd ( 96.7%)    0.104 s ( 0.405 ms/b)
<df|df>:   13203 b   12887 skpd ( 97.6%)    0.122 s ( 0.386 ms/b)
<df|ff>:    7290 b    7081 skpd ( 97.1%)    0.145 s ( 0.693 ms/b)
<ff|ff>:    1035 b    1002 skpd ( 96.8%)    0.045 s ( 1.360 ms/b)
done
Exchange-Correlation gradient            ... done
                 ---------------------------
                 EXCITED STATE GRADIENT DONE
                 ---------------------------


------------------
CARTESIAN GRADIENT
------------------

   1   C   :   -0.015508292   -0.014160241   -0.011338970
   2   C   :    0.018465564   -0.015220726   -0.007450650
   3   C   :   -0.031917689   -0.003310312   -0.001065788
   4   C   :    0.017006371    0.015735123    0.012337482
   5   C   :   -0.016460337    0.014380211    0.007460579
   6   C   :    0.014361233   -0.000298258    0.002017971
   7   H   :    0.000413346   -0.000264345   -0.001168012
   8   H   :   -0.000544767   -0.000638127   -0.001016727
   9   H   :   -0.001324023    0.000329009    0.000023281
  10   H   :   -0.000599844    0.000069448   -0.000366429
  11   H   :    0.000614136   -0.000632571    0.000461199
  12   C   :    0.078594265    0.021597228    0.007095066
  13   C   :   -0.066928729   -0.025542549   -0.007397693
  14   C   :   -0.000426461   -0.007006822    0.007655324
  15   O   :   -0.008272230    0.027066220   -0.017898676
  16   H   :    0.012512209   -0.024073285    0.012750986
  17   H   :    0.003074515    0.002500460    0.000143246
  18   H   :   -0.002995996    0.009434324   -0.002298073

Difference to translation invariance:
           :    0.0000632704   -0.0000352131   -0.0000558824

Norm of the cartesian gradient     ...    0.1333995955
RMS gradient                       ...    0.0181533856
MAX gradient                       ...    0.0785942653

-------
TIMINGS
-------

Total TD-DFT gradient time         ...      122.228 sec

Fock matrix formation       ....      13.326 sec  ( 10.9%)
  Coulomb formation         ....      12.531 sec  ( 94.0% of F)
  XC integration            ....       0.794 sec  (  6.0% of F)
Z-vector equation           ....      81.545 sec  ( 66.7%)
One electron gradient       ....       0.531 sec  (  0.4%)
Prescreening matrices       ....       0.909 sec  (  0.7%)
Two electron gradient       ....      17.573 sec  ( 14.4%)
XC gradient                 ....       7.850 sec  (  6.4%)

		************************************************************
		*      Energy Gradient Calculation For State   10 *
		************************************************************


           ************************************************************
           *        Program running with 28 parallel MPI-processes    *
           *              working on a common directory               *
           ************************************************************
------------------------------------------------------------------------------
                         ORCA SCF GRADIENT CALCULATION
------------------------------------------------------------------------------


-------------------
TD-DFT GRADIENT
-------------------

Reference wavefunction             ... RHF
State of interest                  ... 10
Basis dimension                    ... 358
DFT-XC contribution needed         ... YES
RI-approximation                   ... OFF
CIS-vectors being read from        ... p1r1.cis

 => Number of Vectors found: 20
 => Orbital Window: 10...34 -> 35...357

Reading the RPA file                     ... done
Norm of the RPA vector                   ... 1.000000000
Making the RPA (pseudo)densities         ... done
Making operators G(D) and Q(T)           ... done
Transforming the Fock operators          ... done
Making the frozen-core relaxed density   ... done
Constructing the G(H) operator           ... done
Transforming the G(H) operator           ... done
Calculating the RPA Lagrangian           ... done
Solving the Z-vector equations           ... done
Finalizing the relaxed density           ... done
Storing the relaxed density              ... done
Constructing the G(Z) operator           ... done
Transforming the G(Z) operator           ... done
Making the W-matrix                      ... done
Finalizing the W-matrix                  ... done
Transforming the W-matrix                ... done
Nuclear repulsion gradient               ... done
One-Electron gradient                    ... done
Prescreening matrices                    ... done
Two-Electron gradient (4-center)         ... <ss|ss>: 2362051 b 2306625 skpd ( 97.7%)    0.069 s ( 0.001 ms/b)
<ss|sp>: 5082647 b 4961298 skpd ( 97.6%)    0.246 s ( 0.002 ms/b)
<ss|sd>: 2618465 b 2559626 skpd ( 97.8%)    0.178 s ( 0.003 ms/b)
<ss|sf>: 1266859 b 1240311 skpd ( 97.9%)    0.121 s ( 0.005 ms/b)
<ss|pp>: 1384201 b 1349295 skpd ( 97.5%)    0.196 s ( 0.006 ms/b)
<ss|pd>: 1397239 b 1363871 skpd ( 97.6%)    0.217 s ( 0.007 ms/b)
<ss|pf>:  684495 b  668960 skpd ( 97.7%)    0.157 s ( 0.010 ms/b)
<ss|dd>:  380275 b  370759 skpd ( 97.5%)    0.085 s ( 0.009 ms/b)
<ss|df>:  352026 b  344221 skpd ( 97.8%)    0.111 s ( 0.014 ms/b)
<ss|ff>:   97785 b   94715 skpd ( 96.9%)    0.072 s ( 0.024 ms/b)
<sp|sp>: 2736630 b 2669244 skpd ( 97.5%)    0.295 s ( 0.004 ms/b)
<sp|sd>: 2818495 b 2753078 skpd ( 97.7%)    0.475 s ( 0.007 ms/b)
<sp|sf>: 1363637 b 1333819 skpd ( 97.8%)    0.348 s ( 0.012 ms/b)
<sp|pp>: 1489943 b 1451680 skpd ( 97.4%)    0.568 s ( 0.015 ms/b)
<sp|pd>: 1503977 b 1467015 skpd ( 97.5%)    0.643 s ( 0.017 ms/b)
<sp|pf>:  736785 b  719411 skpd ( 97.6%)    0.482 s ( 0.028 ms/b)
<sp|dd>:  409325 b  398619 skpd ( 97.4%)    0.273 s ( 0.025 ms/b)
<sp|df>:  378918 b  370022 skpd ( 97.7%)    0.358 s ( 0.040 ms/b)
<sp|ff>:  105255 b  101760 skpd ( 96.7%)    0.242 s ( 0.069 ms/b)
<sd|sd>:  726615 b  710932 skpd ( 97.8%)    0.191 s ( 0.012 ms/b)
<sd|sf>:  702515 b  688591 skpd ( 98.0%)    0.286 s ( 0.021 ms/b)
<sd|pp>:  767585 b  748773 skpd ( 97.5%)    0.518 s ( 0.028 ms/b)
<sd|pd>:  774815 b  756923 skpd ( 97.7%)    0.556 s ( 0.031 ms/b)
<sd|pf>:  379575 b  371347 skpd ( 97.8%)    0.414 s ( 0.050 ms/b)
<sd|dd>:  210875 b  205726 skpd ( 97.6%)    0.245 s ( 0.048 ms/b)
<sd|df>:  195210 b  190955 skpd ( 97.8%)    0.315 s ( 0.074 ms/b)
<sd|ff>:   54225 b   52540 skpd ( 96.9%)    0.209 s ( 0.124 ms/b)
<sf|sf>:  170236 b  167067 skpd ( 98.1%)    0.118 s ( 0.037 ms/b)
<sf|pp>:  371371 b  362591 skpd ( 97.6%)    0.425 s ( 0.048 ms/b)
<sf|pd>:  374869 b  366785 skpd ( 97.8%)    0.433 s ( 0.054 ms/b)
<sf|pf>:  183645 b  179992 skpd ( 98.0%)    0.337 s ( 0.092 ms/b)
<sf|dd>:  102025 b   99751 skpd ( 97.8%)    0.179 s ( 0.079 ms/b)
<sf|df>:   94446 b   92575 skpd ( 98.0%)    0.239 s ( 0.128 ms/b)
<sf|ff>:   26235 b   25498 skpd ( 97.2%)    0.172 s ( 0.233 ms/b)
<pp|pp>:  203203 b  197493 skpd ( 97.2%)    0.295 s ( 0.052 ms/b)
<pp|pd>:  409591 b  398989 skpd ( 97.4%)    0.579 s ( 0.055 ms/b)
<pp|pf>:  200655 b  195609 skpd ( 97.5%)    0.463 s ( 0.092 ms/b)
<pp|dd>:  111475 b  108379 skpd ( 97.2%)    0.254 s ( 0.082 ms/b)
<pp|df>:  103194 b  100589 skpd ( 97.5%)    0.339 s ( 0.130 ms/b)
<pp|ff>:   28665 b   27650 skpd ( 96.5%)    0.232 s ( 0.229 ms/b)
<pd|pd>:  207046 b  201917 skpd ( 97.5%)    0.441 s ( 0.086 ms/b)
<pd|pf>:  202545 b  197831 skpd ( 97.7%)    0.669 s ( 0.142 ms/b)
<pd|dd>:  112525 b  109570 skpd ( 97.4%)    0.407 s ( 0.138 ms/b)
<pd|df>:  104166 b  101710 skpd ( 97.6%)    0.548 s ( 0.223 ms/b)
<pd|ff>:   28935 b   27970 skpd ( 96.7%)    0.376 s ( 0.390 ms/b)
<pf|pf>:   49770 b   48617 skpd ( 97.7%)    0.268 s ( 0.233 ms/b)
<pf|dd>:   55125 b   53786 skpd ( 97.6%)    0.315 s ( 0.235 ms/b)
<pf|df>:   51030 b   49914 skpd ( 97.8%)    0.443 s ( 0.397 ms/b)
<pf|ff>:   14175 b   13731 skpd ( 96.9%)    0.305 s ( 0.686 ms/b)
<dd|dd>:   15400 b   14988 skpd ( 97.3%)    0.112 s ( 0.271 ms/b)
<dd|df>:   28350 b   27679 skpd ( 97.6%)    0.298 s ( 0.445 ms/b)
<dd|ff>:    7875 b    7617 skpd ( 96.7%)    0.195 s ( 0.757 ms/b)
<df|df>:   13203 b   12882 skpd ( 97.6%)    0.227 s ( 0.706 ms/b)
<df|ff>:    7290 b    7081 skpd ( 97.1%)    0.240 s ( 1.148 ms/b)
<ff|ff>:    1035 b    1002 skpd ( 96.8%)    0.065 s ( 1.963 ms/b)
done
Exchange-Correlation gradient            ... done
                 ---------------------------
                 EXCITED STATE GRADIENT DONE
                 ---------------------------


------------------
CARTESIAN GRADIENT
------------------

   1   C   :    0.005223899   -0.008903646   -0.006925687
   2   C   :   -0.003471245   -0.010529234   -0.010388758
   3   C   :   -0.017362853   -0.000544883   -0.001036236
   4   C   :   -0.007468237    0.010734085    0.009623069
   5   C   :    0.005300621    0.009097601    0.008145213
   6   C   :    0.013367036    0.000368148    0.001476927
   7   H   :    0.001494385   -0.002012318   -0.000794628
   8   H   :   -0.001250931   -0.001300049   -0.002114712
   9   H   :   -0.001334610    0.002137186   -0.000160618
  10   H   :    0.000634981    0.001731530   -0.000176950
  11   H   :    0.002510461   -0.000582306    0.000884139
  12   C   :    0.058797052   -0.001198280    0.008098044
  13   C   :   -0.064252566    0.002287931   -0.009872262
  14   C   :    0.013009153    0.005196463    0.005829808
  15   O   :   -0.005317599    0.002380467   -0.001578937
  16   H   :    0.001761441   -0.004259872    0.002958532
  17   H   :   -0.001933069   -0.005277843   -0.001840561
  18   H   :    0.000372077    0.000641498   -0.002181470

Difference to translation invariance:
           :    0.0000799983   -0.0000335234   -0.0000550878

Norm of the cartesian gradient     ...    0.0971289470
RMS gradient                       ...    0.0132175755
MAX gradient                       ...    0.0642525658

-------
TIMINGS
-------

Total TD-DFT gradient time         ...      124.583 sec

Fock matrix formation       ....      13.816 sec  ( 11.1%)
  Coulomb formation         ....      13.030 sec  ( 94.3% of F)
  XC integration            ....       0.786 sec  (  5.7% of F)
Z-vector equation           ....      82.901 sec  ( 66.5%)
One electron gradient       ....       0.988 sec  (  0.8%)
Prescreening matrices       ....       1.794 sec  (  1.4%)
Two electron gradient       ....      16.880 sec  ( 13.5%)
XC gradient                 ....       7.658 sec  (  6.1%)

Mass weighting the hessian        ... done
Symmetrizing the hessian          ... done
Calculating normal modes          ... done


-----------------------------------------------
ENTERING SURFACE PARAMETERS CALCULATION
-----------------------------------------------

Mass weighting the cartesian gradient                                ... done
Calculating energy gradient along normal modes at the input geometry ... done


Surface parameters are stored in the file :     p1r1.rrhess
Prepared input file for orca_asa run      :    p1r1.asa.inp

Timings for individual modules:

Sum of individual times         ...     2764.003 sec (=  46.067 min)
GTO integral calculation        ...        1.397 sec (=   0.023 min)   0.1 %
SCF iterations                  ...       47.940 sec (=   0.799 min)   1.7 %
CIS module                      ...     1459.572 sec (=  24.326 min)  52.8 %
SCF Gradient evaluation         ...     1255.094 sec (=  20.918 min)  45.4 %
                             ****ORCA TERMINATED NORMALLY****
TOTAL RUN TIME: 0 days 0 hours 46 minutes 4 seconds 944 msec
