
                                 *****************
                                 * O   R   C   A *
                                 *****************

           --- An Ab Initio, DFT and Semiempirical electronic structure package ---

                  #######################################################
                  #                        -***-                        #
                  #          Department of theory and spectroscopy      #
                  #               Directorship: Frank Neese             #
                  #        Max Planck Institute fuer Kohlenforschung    #
                  #                Kaiser Wilhelm Platz 1               #
                  #                 D-45470 Muelheim/Ruhr               #
                  #                      Germany                        #
                  #                                                     #
                  #                  All rights reserved                #
                  #                        -***-                        #
                  #######################################################


                         Program Version 4.2.1 -  RELEASE  -


 With contributions from (in alphabetic order):
   Daniel Aravena         : Magnetic Suceptibility
   Michael Atanasov       : Ab Initio Ligand Field Theory (pilot matlab implementation)
   Alexander A. Auer      : GIAO ZORA, VPT2
   Ute Becker             : Parallelization
   Giovanni Bistoni       : ED, misc. LED, open-shell LED, HFLD
   Martin Brehm           : Molecular dynamics
   Dmytro Bykov           : SCF Hessian
   Vijay G. Chilkuri      : MRCI spin determinant printing, contributions to CSF-ICE
   Dipayan Datta          : RHF DLPNO-CCSD density
   Achintya Kumar Dutta   : EOM-CC, STEOM-CC
   Dmitry Ganyushin       : Spin-Orbit,Spin-Spin,Magnetic field MRCI
   Miquel Garcia          : C-PCM Hessian, Gaussian charge scheme
   Yang Guo               : DLPNO-NEVPT2, CIM, IAO-localization
   Andreas Hansen         : Spin unrestricted coupled pair/coupled cluster methods
   Benjamin Helmich-Paris : CASSCF linear response (MC-RPA)
   Lee Huntington         : MR-EOM, pCC
   Robert Izsak           : Overlap fitted RIJCOSX, COSX-SCS-MP3, EOM
   Christian Kollmar      : KDIIS, OOCD, Brueckner-CCSD(T), CCSD density
   Simone Kossmann        : Meta GGA functionals, TD-DFT gradient, OOMP2, MP2 Hessian
   Martin Krupicka        : AUTO-CI
   Lucas Lang             : DCDCAS
   Dagmar Lenk            : GEPOL surface, SMD
   Dimitrios Liakos       : Extrapolation schemes; Compound Job, initial MDCI parallelization
   Dimitrios Manganas     : Further ROCIS development; embedding schemes
   Dimitrios Pantazis     : SARC Basis sets
   Taras Petrenko         : DFT Hessian,TD-DFT gradient, ASA, ECA, R-Raman, ABS, FL, XAS/XES, NRVS
   Peter Pinski           : DLPNO-MP2, DLPNO-MP2 Gradient
   Christoph Reimann      : Effective Core Potentials
   Marius Retegan         : Local ZFS, SOC
   Christoph Riplinger    : Optimizer, TS searches, QM/MM, DLPNO-CCSD(T), (RO)-DLPNO pert. Triples
   Tobias Risthaus        : Range-separated hybrids, TD-DFT gradient, RPA, STAB
   Michael Roemelt        : Original ROCIS implementation
   Masaaki Saitow         : Open-shell DLPNO-CCSD energy and density
   Barbara Sandhoefer     : DKH picture change effects
   Avijit Sen             : IP-ROCIS
   Kantharuban Sivalingam : CASSCF convergence, NEVPT2, FIC-MRCI
   Bernardo de Souza      : ESD, SOC TD-DFT
   Georgi Stoychev        : AutoAux, RI-MP2 NMR
   Willem Van den Heuvel  : Paramagnetic NMR
   Boris Wezisla          : Elementary symmetry handling
   Frank Wennmohs         : Technical directorship


 We gratefully acknowledge several colleagues who have allowed us to
 interface, adapt or use parts of their codes:
   Stefan Grimme, W. Hujo, H. Kruse,             : VdW corrections, initial TS optimization,
                  C. Bannwarth                     DFT functionals, gCP, sTDA/sTD-DF
   Ed Valeev, F. Pavosevic, A. Kumar             : LibInt (2-el integral package), F12 methods
   Garnet Chan, S. Sharma, J. Yang, R. Olivares  : DMRG
   Ulf Ekstrom                                   : XCFun DFT Library
   Mihaly Kallay                                 : mrcc  (arbitrary order and MRCC methods)
   Andreas Klamt, Michael Diedenhofen            : otool_cosmo (COSMO solvation model)
   Jiri Pittner, Ondrej Demel                    : Mk-CCSD
   Frank Weinhold                                : gennbo (NPA and NBO analysis)
   Christopher J. Cramer and Donald G. Truhlar   : smd solvation model
   Lars Goerigk                                  : TD-DFT with DH, B97 family of functionals
   V. Asgeirsson, H. Jonsson                     : NEB implementation
   FAccTs GmbH                                   : IRC, NEB, NEB-TS, Multilevel, MM, QM/MM, CI optimization
   S Lehtola, MJT Oliveira, MAL Marques          : LibXC Library


 Your calculation uses the libint2 library for the computation of 2-el integrals
 For citations please refer to: http://libint.valeyev.net

 Your ORCA version has been built with support for libXC version: 4.2.3
 For citations please refer to: https://tddft.org/programs/libxc/

 This ORCA versions uses:
   CBLAS   interface :  Fast vector & matrix operations
   LAPACKE interface :  Fast linear algebra routines
   SCALAPACK package :  Parallel linear algebra routines




***************************************
The coordinates will be read from file: pht.xyz
***************************************


----- Orbital basis set information -----
Your calculation utilizes the basis: def2-TZVP
   F. Weigend and R. Ahlrichs, Phys. Chem. Chem. Phys. 7, 3297 (2005).

----- AuxJ basis set information -----
Your calculation utilizes the auxiliary basis: def2/J
   F. Weigend, Phys. Chem. Chem. Phys. 8, 1057 (2006).

----- AuxC basis set information -----
Your calculation utilizes the auxiliary basis: def2-TZVP/C
  H-La, Hf-Rn : A. Hellweg, C. Hattig, S. Hofener and W. Klopper, Theor. Chem. Acc. 117, 587 (2007).
        Ce-Lu : J. Chmela and M. E. Harding, Mol. Phys. (2018).

================================================================================
                                        WARNINGS
                       Please study these warnings very carefully!
================================================================================

INFO   : Checking CIS options ...

INFO   : Since TDDFT/CIS Mode == RPA_AOINTS, the TAMMDANCOFF/TDA keyword is ignored. 


WARNING: CIS/ROCIS methods need fully converged wavefunctions
  ===> : Setting SCFConvForced true
         You can overwrite this default with %scf ConvForced false 


INFO   : the flag for use of LIBINT has been found!

================================================================================
                                       INPUT FILE
================================================================================
NAME = pht.inp
|  1> #
|  2> # PHT PBE0 with tight SCF convergence criteria
|  3> #
|  4> ! PBE0 def2-TZVP def2/J def2-TZVP/C TightSCF Grid4 FinalGrid5 RIJCOSX NMGrad Normalprint Printbasis PrintMOs 
|  5> #
|  6> %maxcore 3072
|  7> #
|  8> %pal
|  9>   nprocs 28
| 10> end
| 11> #
| 12> %tddft
| 13>   nroots 10   
| 14>   maxdim 10
| 15>   tda false
| 16> end
| 17> #
| 18> %rr 
| 19>   states 1,2,3,4,5,6,7,8,9,10
| 20>   HessName "pht.hess"
| 21>   ASAInput true
| 22> end
| 23> #
| 24> * xyzfile 0 1 pht.xyz
| 25> 
| 26>                          ****END OF INPUT****
================================================================================

                     *******************************
                     * Energy+Gradient Calculation *
                     *******************************

Will try to read the hessian file
 ...good, the file pht.hess exists

Cartesian cordinates from the hessian file will be used
Atomic masses from the hessian file will be used

There are 11 states to be processed:
 0, 1, 2, 3, 4, 5, 6, 7, 8, 9, 10

         *************************************************************
         *                 Single Point Calculation                  *
         *************************************************************
---------------------------------
CARTESIAN COORDINATES (ANGSTROEM)
---------------------------------
  C     -4.729710    0.223140   11.943540
  H     -5.556240    0.414630   11.453300
  H     -4.782100    0.617270   12.840340
  H     -4.611560   -0.746650   12.019040
  C     -3.601380    0.793560   11.229540
  C     -2.672030    1.245210   10.629080
  C     -1.631470    1.742380    9.892440
  C     -0.733080    2.174550    9.212190
  C      0.242610    2.687850    8.405130
  C      1.064930    3.159530    7.665580
  C      2.008980    3.733000    6.755910
  C      3.265970    4.146540    7.199330
  H      3.512560    4.019260    8.107630
  C      4.148410    4.737300    6.326330
  H      5.004380    5.012970    6.632810
  C      3.796390    4.930120    5.009920
  H      4.402520    5.356680    4.414720
  C      2.569740    4.507150    4.552640
  H      2.337470    4.627180    3.638290
  C      1.675180    3.909530    5.418030
  H      0.829510    3.617880    5.097510

----------------------------
CARTESIAN COORDINATES (A.U.)
----------------------------
  NO LB      ZA    FRAG     MASS         X           Y           Z
   0 C     6.0000    0    12.011   -8.937857    0.421673   22.570020
   1 H     1.0000    0     1.008  -10.499772    0.783537   21.643600
   2 H     1.0000    0     1.008   -9.036859    1.166471   24.264726
   3 H     1.0000    0     1.008   -8.714585   -1.410964   22.712694
   4 C     6.0000    0    12.011   -6.805622    1.499611   21.220755
   5 C     6.0000    0    12.011   -5.049405    2.353106   20.086050
   6 C     6.0000    0    12.011   -3.083031    3.292621   18.694002
   7 C     6.0000    0    12.011   -1.385320    4.109304   17.408516
   8 C     6.0000    0    12.011    0.458466    5.079300   15.883394
   9 C     6.0000    0    12.011    2.012426    5.970646   14.485847
  10 C     6.0000    0    12.011    3.796422    7.054348   12.766820
  11 C     6.0000    0    12.011    6.171789    7.835825   13.604762
  12 H     1.0000    0     1.008    6.637776    7.595301   15.321200
  13 C     6.0000    0    12.011    7.839359    8.952200   11.955031
  14 H     1.0000    0     1.008    9.456908    9.473140   12.534194
  15 C     6.0000    0    12.011    7.174137    9.316577    9.467377
  16 H     1.0000    0     1.008    8.319557   10.122658    8.342612
  17 C     6.0000    0    12.011    4.856105    8.517279    8.603243
  18 H     1.0000    0     1.008    4.417178    8.744103    6.875372
  19 C     6.0000    0    12.011    3.165631    7.387941   10.238593
  20 H     1.0000    0     1.008    1.567547    6.836802    9.632898

--------------------------------
INTERNAL COORDINATES (ANGSTROEM)
--------------------------------
 C      0   0   0     0.000000000000     0.00000000     0.00000000
 H      1   0   0     0.979875256653     0.00000000     0.00000000
 H      1   2   0     0.980985937208   109.50022650     0.00000000
 H      1   2   3     0.979873622770   109.49156570   120.05277850
 C      1   2   3     1.451999850310   109.43184107   240.01620577
 C      5   1   2     1.195086338555   178.94696290   276.33886717
 C      6   5   1     1.368423038428   177.57085384    40.46066116
 C      7   6   5     1.206903295008   178.25687877    11.92241872
 C      8   7   6     1.366306594326   177.46449954    36.72344906
 C      9   8   7     1.202342050874   177.58098687     0.82275607
 C     10   9   8     1.430942959136   178.11510238   351.89080717
 C     11  10   9     1.395586073340   120.72976945   157.44502917
 H     12  11  10     0.949745079745   119.86824647     2.19485375
 C     12  11  10     1.374709689789   120.24696342   182.19192180
 H     14  12  11     0.950057145755   119.87918553   180.29921831
 C     14  12  11     1.376238686021   120.22880345     0.26721194
 H     16  14  12     0.950584057567   119.91362927   178.62988926
 C     16  14  12     1.375746648842   120.19371555   358.62120459
 H     18  16  14     0.950995518549   119.90368576   181.19338083
 C     18  16  14     1.380683566245   120.16127171     1.22259425
 H     20  18  16     0.950237097676   119.87075075   180.08207906

---------------------------
INTERNAL COORDINATES (A.U.)
---------------------------
 C      0   0   0     0.000000000000     0.00000000     0.00000000
 H      1   0   0     1.851695880479     0.00000000     0.00000000
 H      1   2   0     1.853794762551   109.50022650     0.00000000
 H      1   2   3     1.851692792888   109.49156570   120.05277850
 C      1   2   3     2.743882063580   109.43184107   240.01620577
 C      5   1   2     2.258385886259   178.94696290   276.33886717
 C      6   5   1     2.585944777977   177.57085384    40.46066116
 C      7   6   5     2.280716697691   178.25687877    11.92241872
 C      8   7   6     2.581945278248   177.46449954    36.72344906
 C      9   8   7     2.272097195449   177.58098687     0.82275607
 C     10   9   8     2.704090306029   178.11510238   351.89080717
 C     11  10   9     2.637275474927   120.72976945   157.44502917
 H     12  11  10     1.794758097757   119.86824647     2.19485375
 C     12  11  10     2.597824827349   120.24696342   182.19192180
 H     14  12  11     1.795347817052   119.87918553   180.29921831
 C     14  12  11     2.600714211487   120.22880345     0.26721194
 H     16  14  12     1.796343536073   119.91362927   178.62988926
 C     16  14  12     2.599784395971   120.19371555   358.62120459
 H     18  16  14     1.797121084644   119.90368576   181.19338083
 C     18  16  14     2.609113817809   120.16127171     1.22259425
 H     20  18  16     1.795687876900   119.87075075   180.08207906

---------------------
BASIS SET INFORMATION
---------------------
There are 2 groups of distinct atoms

 Group   1 Type C   : 11s6p2d1f contracted to 5s3p2d1f pattern {62111/411/11/1}
 Group   2 Type H   : 5s1p contracted to 3s1p pattern {311/1}

Atom   0C    basis set group =>   1
Atom   1H    basis set group =>   2
Atom   2H    basis set group =>   2
Atom   3H    basis set group =>   2
Atom   4C    basis set group =>   1
Atom   5C    basis set group =>   1
Atom   6C    basis set group =>   1
Atom   7C    basis set group =>   1
Atom   8C    basis set group =>   1
Atom   9C    basis set group =>   1
Atom  10C    basis set group =>   1
Atom  11C    basis set group =>   1
Atom  12H    basis set group =>   2
Atom  13C    basis set group =>   1
Atom  14H    basis set group =>   2
Atom  15C    basis set group =>   1
Atom  16H    basis set group =>   2
Atom  17C    basis set group =>   1
Atom  18H    basis set group =>   2
Atom  19C    basis set group =>   1
Atom  20H    basis set group =>   2

-------------------------
BASIS SET IN INPUT FORMAT
-------------------------

 # Basis set for element : H 
 NewGTO H 
 S 3 
   1      34.0613410000      0.0254393072
   2       5.1235746000      0.1900859489
   3       1.1646626000      0.8524411301
 S 1 
   1       0.3272304100      1.0000000000
 S 1 
   1       0.1030724100      1.0000000000
 P 1 
   1       0.8000000000      1.0000000000
  end;

 # Basis set for element : C 
 NewGTO C 
 S 6 
   1   13575.3496820000      0.0006064549
   2    2035.2333680000      0.0046979088
   3     463.2256235900      0.0243324776
   4     131.2001959800      0.0973999683
   5      42.8530158910      0.3019558425
   6      15.5841857660      0.6623360915
 S 2 
   1       6.2067138508      0.6559530854
   2       2.5764896527      0.3758563329
 S 1 
   1       0.5769633942      1.0000000000
 S 1 
   1       0.2297283136      1.0000000000
 S 1 
   1       0.0951644400      1.0000000000
 P 4 
   1      34.6972322440      0.0113272200
   2       7.9582622826      0.0761696592
   3       2.3780826883      0.3019225220
   4       0.8143320818      0.7278502735
 P 1 
   1       0.2888754725      1.0000000000
 P 1 
   1       0.1005682367      1.0000000000
 D 1 
   1       1.0970000000      1.0000000000
 D 1 
   1       0.3180000000      1.0000000000
 F 1 
   1       0.7610000000      1.0000000000
  end;

---------------------------------
AUXILIARY/J BASIS SET INFORMATION
---------------------------------
There are 2 groups of distinct atoms

 Group   1 Type C   : 12s5p4d2f1g contracted to 6s4p3d1f1g pattern {711111/2111/211/2/1}
 Group   2 Type H   : 5s2p1d contracted to 3s1p1d pattern {311/2/1}

Atom   0C    basis set group =>   1
Atom   1H    basis set group =>   2
Atom   2H    basis set group =>   2
Atom   3H    basis set group =>   2
Atom   4C    basis set group =>   1
Atom   5C    basis set group =>   1
Atom   6C    basis set group =>   1
Atom   7C    basis set group =>   1
Atom   8C    basis set group =>   1
Atom   9C    basis set group =>   1
Atom  10C    basis set group =>   1
Atom  11C    basis set group =>   1
Atom  12H    basis set group =>   2
Atom  13C    basis set group =>   1
Atom  14H    basis set group =>   2
Atom  15C    basis set group =>   1
Atom  16H    basis set group =>   2
Atom  17C    basis set group =>   1
Atom  18H    basis set group =>   2
Atom  19C    basis set group =>   1
Atom  20H    basis set group =>   2

-------------------------------------
AUXILIARY/J BASIS SET IN INPUT FORMAT
-------------------------------------

 # Auxiliary/J basis set for element : H 
 NewAuxJGTO H 
 S 3 
   1      15.6752927000      0.1007184237
   2       3.6063578000      0.3404257499
   3       1.2080016000      0.6491996172
 S 1 
   1       0.4726794000      1.0000000000
 S 1 
   1       0.2018100000      1.0000000000
 P 2 
   1       2.0281365000      0.5596620919
   2       0.5358730000      0.5596620919
 D 1 
   1       2.2165124000      1.0000000000
  end;

 # Auxiliary/J basis set for element : C 
 NewAuxJGTO C 
 S 7 
   1    1861.0916331000      0.0134602335
   2     642.9939764000      0.0299160374
   3     235.1105725000      0.1008649584
   4      90.7028894000      0.2370970548
   5      36.7794552000      0.3924037254
   6      15.6046273000      0.3195862154
   7       6.8907294000      0.0530104441
 S 1 
   1       3.1478850000     -1.0000000000
 S 1 
   1       1.4777287000      1.0000000000
 S 1 
   1       0.7076466000      1.0000000000
 S 1 
   1       0.3430122000      1.0000000000
 S 1 
   1       0.1669453000      1.0000000000
 P 2 
   1      13.5472892000     -0.6769313712
   2       5.4669419000     -0.3779500978
 P 1 
   1       2.1751721000      1.0000000000
 P 1 
   1       0.8582194000      1.0000000000
 P 1 
   1       0.3376720000      1.0000000000
 D 2 
   1       5.9287253000     -0.3533329857
   2       1.9809209000     -0.7456525731
 D 1 
   1       0.8055417000     -1.0000000000
 D 1 
   1       0.3531244000     -1.0000000000
 F 2 
   1       1.6755626000      0.6311076882
   2       0.5997536000      0.4968166032
 G 1 
   1       1.0024600000     -1.0000000000
  end;

---------------------------------
AUXILIARY/C BASIS SET INFORMATION
---------------------------------
There are 2 groups of distinct atoms

 Group   1 Type C   : 8s6p5d3f1g contracted to 8s6p4d3f1g pattern {11111111/111111/2111/111/1}
 Group   2 Type H   : 4s3p2d contracted to 4s2p1d pattern {1111/21/2}

Atom   0C    basis set group =>   1
Atom   1H    basis set group =>   2
Atom   2H    basis set group =>   2
Atom   3H    basis set group =>   2
Atom   4C    basis set group =>   1
Atom   5C    basis set group =>   1
Atom   6C    basis set group =>   1
Atom   7C    basis set group =>   1
Atom   8C    basis set group =>   1
Atom   9C    basis set group =>   1
Atom  10C    basis set group =>   1
Atom  11C    basis set group =>   1
Atom  12H    basis set group =>   2
Atom  13C    basis set group =>   1
Atom  14H    basis set group =>   2
Atom  15C    basis set group =>   1
Atom  16H    basis set group =>   2
Atom  17C    basis set group =>   1
Atom  18H    basis set group =>   2
Atom  19C    basis set group =>   1
Atom  20H    basis set group =>   2

-------------------------------------
AUXILIARY/C BASIS SET IN INPUT FORMAT
-------------------------------------

 # Auxiliary/C basis set for element : H 
 NewAuxCGTO H 
 S 1 
   1       9.3352160900      1.0000000000
 S 1 
   1       1.8611070400      1.0000000000
 S 1 
   1       0.5951246600      1.0000000000
 S 1 
   1       0.2644809900      1.0000000000
 P 2 
   1       2.4524982100      0.0844547495
   2       1.3540383000      0.9235458776
 P 1 
   1       0.5952239400      1.0000000000
 D 2 
   1       1.5816376600      1.0050058114
   2       0.6274396000     -0.0072040465
  end;

 # Auxiliary/C basis set for element : C 
 NewAuxCGTO C 
 S 1 
   1     281.4769331600      1.0000000000
 S 1 
   1      59.8626069100      1.0000000000
 S 1 
   1      23.2828449200      1.0000000000
 S 1 
   1       9.4336543900      1.0000000000
 S 1 
   1       3.3115794700      1.0000000000
 S 1 
   1       1.0743857900      1.0000000000
 S 1 
   1       0.4059170000      1.0000000000
 S 1 
   1       0.2068278200      1.0000000000
 P 1 
   1      24.7943227600      1.0000000000
 P 1 
   1       6.3790867800      1.0000000000
 P 1 
   1       2.7361982700      1.0000000000
 P 1 
   1       1.1318078500      1.0000000000
 P 1 
   1       0.4917128000      1.0000000000
 P 1 
   1       0.2376059100      1.0000000000
 D 2 
   1       9.0676879600      0.2778444250
   2       3.4116768900      0.7926293847
 D 1 
   1       1.4150161500      1.0000000000
 D 1 
   1       0.5879348600      1.0000000000
 D 1 
   1       0.2575308700      1.0000000000
 F 1 
   1       2.3870173500      1.0000000000
 F 1 
   1       1.1606799200      1.0000000000
 F 1 
   1       0.5528981700      1.0000000000
 G 1 
   1       1.2288470700      1.0000000000
  end;



           ************************************************************
           *        Program running with 28 parallel MPI-processes    *
           *              working on a common directory               *
           ************************************************************
------------------------------------------------------------------------------
                           ORCA GTO INTEGRAL CALCULATION
                           -- RI-GTO INTEGRALS CHOSEN --
------------------------------------------------------------------------------

                         BASIS SET STATISTICS AND STARTUP INFO

Gaussian basis set:
 # of primitive gaussian shells          ...  308
 # of primitive gaussian functions       ...  662
 # of contracted shells                  ...  175
 # of contracted basis functions         ...  451
 Highest angular momentum                ...    3
 Maximum contraction depth               ...    6
Auxiliary gaussian basis set:
 # of primitive gaussian shells          ...  376
 # of primitive gaussian functions       ... 1038
 # of contracted shells                  ...  235
 # of contracted aux-basis functions     ...  725
 Highest angular momentum                ...    4
 Maximum contraction depth               ...    7
Ratio of auxiliary to basis functions    ...  1.61
Integral package used                  ... LIBINT
 One Electron integrals                  ... done
 Ordering auxiliary basis shells         ... done
 Integral threshhold             Thresh  ...  2.500e-11
 Primitive cut-off               TCut    ...  2.500e-12
 Pre-screening matrix                    ... done
 Shell pair data                         ... 
 Ordering of the shell pairs             ... done (   0.003 sec) 10457 of 15400 pairs
 Determination of significant pairs      ... done (   0.000 sec)
 Creation of shell pair data             ... done (   0.002 sec)
 Storage of shell pair data              ... done (   0.013 sec)
 Shell pair data done in (   0.018 sec)
 Computing two index integrals           ... done
 Cholesky decomposition of the V-matrix  ... done


Timings:
 Total evaluation time                   ...   0.601 sec (  0.010 min)
 One electron matrix time                ...   0.132 sec (  0.002 min) = 21.9%
 Schwartz matrix evaluation time         ...   0.397 sec (  0.007 min) = 66.1%
 Two index repulsion integral time       ...   0.018 sec (  0.000 min) =  3.0%
 Cholesky decomposition of V             ...   0.016 sec (  0.000 min) =  2.7%
 Three index repulsion integral time     ...   0.000 sec (  0.000 min) =  0.0%



           ************************************************************
           *        Program running with 28 parallel MPI-processes    *
           *              working on a common directory               *
           ************************************************************
-------------------------------------------------------------------------------
                                 ORCA SCF
-------------------------------------------------------------------------------

------------
SCF SETTINGS
------------
Hamiltonian:
 Density Functional     Method          .... DFT(GTOs)
 Exchange Functional    Exchange        .... PBE
   PBE kappa parameter   XKappa         ....  0.804000
   PBE mue parameter    XMuePBE         ....  0.219520
 Correlation Functional Correlation     .... PBE
   PBE beta parameter  CBetaPBE         ....  0.066725
 LDA part of GGA corr.  LDAOpt          .... PW91-LDA
 Gradients option       PostSCFGGA      .... off
 Hybrid DFT is turned on
   Fraction HF Exchange ScalHFX         ....  0.250000
   Scaling of DF-GGA-X  ScalDFX         ....  0.750000
   Scaling of DF-GGA-C  ScalDFC         ....  1.000000
   Scaling of DF-LDA-C  ScalLDAC        ....  1.000000
   Perturbative correction              ....  0.000000
   Density functional embedding theory  .... OFF
   NL short-range parameter             ....  6.900000
 RI-approximation to the Coulomb term is turned on
   Number of auxiliary basis functions  .... 725
   RIJ-COSX (HFX calculated with COS-X)).... on


General Settings:
 Integral files         IntName         .... pht
 Hartree-Fock type      HFTyp           .... RHF
 Total Charge           Charge          ....    0
 Multiplicity           Mult            ....    1
 Number of Electrons    NEL             ....   86
 Basis Dimension        Dim             ....  451
 Nuclear Repulsion      ENuc            ....    562.3427627286 Eh

Convergence Acceleration:
 DIIS                   CNVDIIS         .... on
   Start iteration      DIISMaxIt       ....    12
   Startup error        DIISStart       ....  0.200000
   # of expansion vecs  DIISMaxEq       ....     5
   Bias factor          DIISBfac        ....   1.050
   Max. coefficient     DIISMaxC        ....  10.000
 Newton-Raphson         CNVNR           .... off
 SOSCF                  CNVSOSCF        .... on
   Start iteration      SOSCFMaxIt      ....   150
   Startup grad/error   SOSCFStart      ....  0.003300
 Level Shifting         CNVShift        .... on
   Level shift para.    LevelShift      ....    0.2500
   Turn off err/grad.   ShiftErr        ....    0.0010
 Zerner damping         CNVZerner       .... off
 Static damping         CNVDamp         .... on
   Fraction old density DampFac         ....    0.7000
   Max. Damping (<1)    DampMax         ....    0.9800
   Min. Damping (>=0)   DampMin         ....    0.0000
   Turn off err/grad.   DampErr         ....    0.1000
 Fernandez-Rico         CNVRico         .... off

SCF Procedure:
 Maximum # iterations   MaxIter         ....   125
 SCF integral mode      SCFMode         .... Direct
   Integral package                     .... LIBINT
 Reset frequency        DirectResetFreq ....    20
 Integral Threshold     Thresh          ....  2.500e-11 Eh
 Primitive CutOff       TCut            ....  2.500e-12 Eh

Convergence Tolerance:
 Convergence Check Mode ConvCheckMode   .... Total+1el-Energy
 Convergence forced     ConvForced      .... 1
 Energy Change          TolE            ....  1.000e-08 Eh
 1-El. energy change                    ....  1.000e-05 Eh
 Orbital Gradient       TolG            ....  1.000e-05
 Orbital Rotation angle TolX            ....  1.000e-05
 DIIS Error             TolErr          ....  5.000e-07


Diagonalization of the overlap matrix:
Smallest eigenvalue                        ... 3.160e-06
Time for diagonalization                   ...    0.035 sec
Threshold for overlap eigenvalues          ... 1.000e-08
Number of eigenvalues below threshold      ... 0
Time for construction of square roots      ...    0.037 sec
Total time needed                          ...    0.074 sec

-------------------
DFT GRID GENERATION
-------------------

General Integration Accuracy     IntAcc      ...  4.670
Radial Grid Type                 RadialGrid  ... Gauss-Chebyshev
Angular Grid (max. acc.)         AngularGrid ... Lebedev-302
Angular grid pruning method      GridPruning ... 3 (G Style)
Weight generation scheme         WeightScheme... Becke
Basis function cutoff            BFCut       ...    1.0000e-11
Integration weight cutoff        WCut        ...    1.0000e-14
Grids for H and He will be reduced by one unit

# of grid points (after initial pruning)     ... 107908 (   0.0 sec)
# of grid points (after weights+screening)   ...  99688 (   0.1 sec)
nearest neighbour list constructed           ...    0.0 sec
Grid point re-assignment to atoms done       ...    0.0 sec
Grid point division into batches done        ...    0.5 sec
Reduced shell lists constructed in    0.6 sec

Total number of grid points                  ...    99688
Total number of batches                      ...     1569
Average number of points per batch           ...       63
Average number of grid points per atom       ...     4747
Average number of shells per batch           ...    41.69 (23.82%)
Average number of basis functions per batch  ...   103.24 (22.89%)
Average number of large shells per batch     ...    32.84 (78.78%)
Average number of large basis fcns per batch ...    80.50 (77.97%)
Maximum spatial batch extension              ...  16.58, 17.12, 17.71 au
Average spatial batch extension              ...   0.13,  0.14,  0.14 au

Time for grid setup =    0.745 sec

------------------------------
INITIAL GUESS: MODEL POTENTIAL
------------------------------
Loading Hartree-Fock densities                     ... done
Calculating cut-offs                               ... done
Setting up the integral package                    ... done
Initializing the effective Hamiltonian             ... done
Starting the Coulomb interaction                   ... done (   0.0 sec)
Reading the grid                                   ... done
Mapping shells                                     ... done
Starting the XC term evaluation                    ... done (   0.1 sec)
  promolecular density results
     # of electrons  =     85.995885294
     EX              =    -68.933221937
     EC              =     -2.817063700
     EX+EC           =    -71.750285637
Transforming the Hamiltonian                       ... done (   0.0 sec)
Diagonalizing the Hamiltonian                      ... done (   0.0 sec)
Back transforming the eigenvectors                 ... done (   0.0 sec)
Now organizing SCF variables                       ... done
                      ------------------
                      INITIAL GUESS DONE (   1.1 sec)
                      ------------------
--------------------
COSX GRID GENERATION
--------------------

General Integration Accuracy     IntAcc      ...  3.340
Radial Grid Type                 RadialGrid  ... Gauss-Chebyshev
Angular Grid (max. acc.)         AngularGrid ... Lebedev-50
Angular grid pruning method      GridPruning ... 3 (G Style)
Weight generation scheme         WeightScheme... Becke
Basis function cutoff            BFCut       ...    1.0000e-11
Integration weight cutoff        WCut        ...    1.0000e-14
Grids for H and He will be reduced by one unit

# of grid points (after initial pruning)     ...  10100 (   0.0 sec)
# of grid points (after weights+screening)   ...   9498 (   0.0 sec)
nearest neighbour list constructed           ...    0.0 sec
Grid point re-assignment to atoms done       ...    0.0 sec
Grid point division into batches done        ...    0.0 sec
Reduced shell lists constructed in    0.0 sec

Total number of grid points                  ...     9498
Total number of batches                      ...      158
Average number of points per batch           ...       60
Average number of grid points per atom       ...      452
Average number of shells per batch           ...    47.86 (27.35%)
Average number of basis functions per batch  ...   120.71 (26.77%)
Average number of large shells per batch     ...    37.00 (77.31%)
Average number of large basis fcns per batch ...    91.86 (76.09%)
Maximum spatial batch extension              ...  14.03, 20.40, 15.48 au
Average spatial batch extension              ...   0.14,  0.18,  0.15 au

Overlap Fitting                  UseSFitting ... on
Constructing numerical overlap ... done (      0.0 sec)
Inverting numerical overlap    ... done (      0.0 sec)
Obtaining analytic overlap     ... done (      0.0 sec)
Final contraction and storage  ... done (      0.0 sec)


General Integration Accuracy     IntAcc      ...  3.670
Radial Grid Type                 RadialGrid  ... Gauss-Chebyshev
Angular Grid (max. acc.)         AngularGrid ... Lebedev-50
Angular grid pruning method      GridPruning ... 3 (G Style)
Weight generation scheme         WeightScheme... Becke
Basis function cutoff            BFCut       ...    1.0000e-11
Integration weight cutoff        WCut        ...    1.0000e-14
Grids for H and He will be reduced by one unit

# of grid points (after initial pruning)     ...  12666 (   0.0 sec)
# of grid points (after weights+screening)   ...  11893 (   0.0 sec)
nearest neighbour list constructed           ...    0.0 sec
Grid point re-assignment to atoms done       ...    0.0 sec
Grid point division into batches done        ...    0.0 sec
Reduced shell lists constructed in    0.0 sec

Total number of grid points                  ...    11893
Total number of batches                      ...      195
Average number of points per batch           ...       60
Average number of grid points per atom       ...      566
Average number of shells per batch           ...    48.25 (27.57%)
Average number of basis functions per batch  ...   121.75 (27.00%)
Average number of large shells per batch     ...    37.75 (78.24%)
Average number of large basis fcns per batch ...    94.00 (77.21%)
Maximum spatial batch extension              ...  15.18, 22.70, 16.61 au
Average spatial batch extension              ...   0.13,  0.16,  0.13 au

Overlap Fitting                  UseSFitting ... on
Constructing numerical overlap ... done (      0.0 sec)
Inverting numerical overlap    ... done (      0.0 sec)
Obtaining analytic overlap     ... done (      0.0 sec)
Final contraction and storage  ... done (      0.0 sec)


General Integration Accuracy     IntAcc      ...  4.010
Radial Grid Type                 RadialGrid  ... Gauss-Chebyshev
Angular Grid (max. acc.)         AngularGrid ... Lebedev-110
Angular grid pruning method      GridPruning ... 3 (G Style)
Weight generation scheme         WeightScheme... Becke
Basis function cutoff            BFCut       ...    1.0000e-11
Integration weight cutoff        WCut        ...    1.0000e-14
Grids for H and He will be reduced by one unit

# of grid points (after initial pruning)     ...  24428 (   0.0 sec)
# of grid points (after weights+screening)   ...  22891 (   0.0 sec)
nearest neighbour list constructed           ...    0.0 sec
Grid point re-assignment to atoms done       ...    0.0 sec
Grid point division into batches done        ...    0.0 sec
Reduced shell lists constructed in    0.0 sec

Total number of grid points                  ...    22891
Total number of batches                      ...      368
Average number of points per batch           ...       62
Average number of grid points per atom       ...     1090
Average number of shells per batch           ...    46.73 (26.70%)
Average number of basis functions per batch  ...   117.13 (25.97%)
Average number of large shells per batch     ...    36.13 (77.32%)
Average number of large basis fcns per batch ...    89.20 (76.15%)
Maximum spatial batch extension              ...  14.52, 24.23, 17.88 au
Average spatial batch extension              ...   0.18,  0.27,  0.24 au

Overlap Fitting                  UseSFitting ... on
Constructing numerical overlap ... done (      0.0 sec)
Inverting numerical overlap    ... done (      0.0 sec)
Obtaining analytic overlap     ... done (      0.0 sec)
Final contraction and storage  ... done (      0.0 sec)

Time for X-Grid setup             =    0.317 sec
--------------
SCF ITERATIONS
--------------
               ***  Starting incremental Fock matrix formation  ***

                         ----------------------------
                         !        ITERATION     0   !
                         ----------------------------
   Total Energy        :    -499.176172798315 Eh
   Energy Change       :    -499.176172798315 Eh
   MAX-DP              :       0.138296985606
   RMS-DP              :       0.001552107477
   Actual Damping      :       0.7000
   Actual Level Shift  :       0.2500 Eh
   Int. Num. El.       :    85.99991704 (UP=   42.99995852 DN=   42.99995852)
   Exchange            :   -53.65900377
   Correlation         :    -2.85691322


                         ----------------------------
                         !        ITERATION     1   !
                         ----------------------------
   Total Energy        :    -499.307155698802 Eh
   Energy Change       :      -0.130982900487 Eh
   MAX-DP              :       0.065389106604
   RMS-DP              :       0.001029818812
   Actual Damping      :       0.7000
   Actual Level Shift  :       0.2500 Eh
   Int. Num. El.       :    85.99991102 (UP=   42.99995551 DN=   42.99995551)
   Exchange            :   -53.31952284
   Correlation         :    -2.84693630

                               ***Turning on DIIS***

                         ----------------------------
                         !        ITERATION     2   !
                         ----------------------------
   Total Energy        :    -499.373784624808 Eh
   Energy Change       :      -0.066628926006 Eh
   MAX-DP              :       0.110466063165
   RMS-DP              :       0.002073699491
   Actual Damping      :       0.0000
   Actual Level Shift  :       0.2500 Eh
   Int. Num. El.       :    85.99990613 (UP=   42.99995306 DN=   42.99995306)
   Exchange            :   -53.07066890
   Correlation         :    -2.83913303
   DIIS-Error          :       0.050470841781


                         ----------------------------
                         !        ITERATION     3   !
                         ----------------------------
   Total Energy        :    -499.475660744877 Eh
   Energy Change       :      -0.101876120069 Eh
   MAX-DP              :       0.069056619006
   RMS-DP              :       0.000702842613
   Actual Damping      :       0.0000
   Actual Level Shift  :       0.2500 Eh
   Int. Num. El.       :    85.99989765 (UP=   42.99994883 DN=   42.99994883)
   Exchange            :   -52.62063257
   Correlation         :    -2.82746724
   DIIS-Error          :       0.049061245189
   DIIS coefficients:
      0.43093   0.56907


                         ----------------------------
                         !        ITERATION     4   !
                         ----------------------------
   Total Energy        :    -499.493178872619 Eh
   Energy Change       :      -0.017518127742 Eh
   MAX-DP              :       0.010214861795
   RMS-DP              :       0.000151838634
   Actual Damping      :       0.0000
   Actual Level Shift  :       0.2500 Eh
   Int. Num. El.       :    85.99990158 (UP=   42.99995079 DN=   42.99995079)
   Exchange            :   -52.77841124
   Correlation         :    -2.83265954
   DIIS-Error          :       0.007428007746
   DIIS coefficients:
      0.14059   0.07195   0.78746

                      *** Initiating the SOSCF procedure ***
                           *** Shutting down DIIS ***
                      *** Re-Reading the Fockian *** 
                      *** Removing any level shift *** 

                         ----------------------------
                         !        ITERATION     5   !
                         ----------------------------
   Total Energy        :    -499.493862502847 Eh
   Energy Change       :      -0.000683630228 Eh
   MAX-DP              :       0.003131840544
   RMS-DP              :       0.000053417534
   Orbital gradient    :       0.000693353507
   Orbital Rotation    :       0.000693353507
   Actual Damping      :       0.0000
   Int. Num. El.       :    85.99990214 (UP=   42.99995107 DN=   42.99995107)
   Exchange            :   -52.80826426
   Correlation         :    -2.83383914

               *** Restarting incremental Fock matrix formation ***

                         ----------------------------
                         !        ITERATION     6   !
                         ----------------------------
   Total Energy        :    -499.493905463814 Eh
   Energy Change       :      -0.000042960968 Eh
   MAX-DP              :       0.005557143364
   RMS-DP              :       0.000146151996
   Orbital gradient    :       0.000552785645
   Orbital Rotation    :       0.001935976246
   Actual Damping      :       0.0000
   Int. Num. El.       :    85.99990238 (UP=   42.99995119 DN=   42.99995119)
   Exchange            :   -52.81341874
   Correlation         :    -2.83419772


                         ----------------------------
                         !        ITERATION     7   !
                         ----------------------------
   Total Energy        :    -499.493890113965 Eh
   Energy Change       :       0.000015349849 Eh
   MAX-DP              :       0.001124439903
   RMS-DP              :       0.000021590909
   Orbital gradient    :       0.001019628052
   Orbital Rotation    :       0.001259263620
   Actual Damping      :       0.0000
   Int. Num. El.       :    85.99990252 (UP=   42.99995126 DN=   42.99995126)
   Exchange            :   -52.81517561
   Correlation         :    -2.83436600


                         ----------------------------
                         !        ITERATION     8   !
                         ----------------------------
   Total Energy        :    -499.493912379293 Eh
   Energy Change       :      -0.000022265327 Eh
   MAX-DP              :       0.000720097860
   RMS-DP              :       0.000018235849
   Orbital gradient    :       0.000059638187
   Orbital Rotation    :       0.000163912221
   Actual Damping      :       0.0000
   Int. Num. El.       :    85.99990251 (UP=   42.99995126 DN=   42.99995126)
   Exchange            :   -52.81490459
   Correlation         :    -2.83435825


                         ----------------------------
                         !        ITERATION     9   !
                         ----------------------------
   Total Energy        :    -499.493912272081 Eh
   Energy Change       :       0.000000107212 Eh
   MAX-DP              :       0.000094678870
   RMS-DP              :       0.000002541042
   Orbital gradient    :       0.000099462587
   Orbital Rotation    :       0.000113349700
   Actual Damping      :       0.0000
   Int. Num. El.       :    85.99990248 (UP=   42.99995124 DN=   42.99995124)
   Exchange            :   -52.81413807
   Correlation         :    -2.83431220


                         ----------------------------
                         !        ITERATION    10   !
                         ----------------------------
   Total Energy        :    -499.493912593957 Eh
   Energy Change       :      -0.000000321877 Eh
   MAX-DP              :       0.000220849942
   RMS-DP              :       0.000003633256
   Orbital gradient    :       0.000024279283
   Orbital Rotation    :       0.000060093632
   Actual Damping      :       0.0000
   Int. Num. El.       :    85.99990250 (UP=   42.99995125 DN=   42.99995125)
   Exchange            :   -52.81440261
   Correlation         :    -2.83432843


                         ----------------------------
                         !        ITERATION    11   !
                         ----------------------------
   Total Energy        :    -499.493912563317 Eh
   Energy Change       :       0.000000030641 Eh
   MAX-DP              :       0.000057430333
   RMS-DP              :       0.000001684399
   Orbital gradient    :       0.000030051300
   Orbital Rotation    :       0.000040494305
   Actual Damping      :       0.0000
   Int. Num. El.       :    85.99990250 (UP=   42.99995125 DN=   42.99995125)
   Exchange            :   -52.81464051
   Correlation         :    -2.83434068


                         ----------------------------
                         !        ITERATION    12   !
                         ----------------------------
   Total Energy        :    -499.493912615299 Eh
   Energy Change       :      -0.000000051982 Eh
   MAX-DP              :       0.000064921346
   RMS-DP              :       0.000001183947
   Orbital gradient    :       0.000003664897
   Orbital Rotation    :       0.000019651100
   Actual Damping      :       0.0000
   Int. Num. El.       :    85.99990250 (UP=   42.99995125 DN=   42.99995125)
   Exchange            :   -52.81450588
   Correlation         :    -2.83433288


                         ----------------------------
                         !        ITERATION    13   !
                         ----------------------------
   Total Energy        :    -499.493912616995 Eh
   Energy Change       :      -0.000000001696 Eh
   MAX-DP              :       0.000094280252
   RMS-DP              :       0.000001271340
   Orbital gradient    :       0.000005189522
   Orbital Rotation    :       0.000012258413
   Actual Damping      :       0.0000
   Int. Num. El.       :    85.99990250 (UP=   42.99995125 DN=   42.99995125)
   Exchange            :   -52.81447434
   Correlation         :    -2.83433170

                  ***Gradient check signals convergence***
              ***Rediagonalizing the Fockian in SOSCF/NRSCF***

               *****************************************************
               *                     SUCCESS                       *
               *           SCF CONVERGED AFTER  14 CYCLES          *
               *****************************************************

Setting up the final grid:

General Integration Accuracy     IntAcc      ...  5.010
Radial Grid Type                 RadialGrid  ... Gauss-Chebyshev
Angular Grid (max. acc.)         AngularGrid ... Lebedev-434
Angular grid pruning method      GridPruning ... 3 (G Style)
Weight generation scheme         WeightScheme... Becke
Basis function cutoff            BFCut       ...    1.0000e-11
Integration weight cutoff        WCut        ...    1.0000e-14
Grids for H and He will be reduced by one unit

# of grid points (after initial pruning)     ... 192610 (   0.0 sec)
# of grid points (after weights+screening)   ... 177628 (   0.1 sec)
nearest neighbour list constructed           ...    0.0 sec
Grid point re-assignment to atoms done       ...    0.0 sec
Grid point division into batches done        ...    1.8 sec
Reduced shell lists constructed in    1.9 sec

Total number of grid points                  ...   177628
Total number of batches                      ...     2786
Average number of points per batch           ...       63
Average number of grid points per atom       ...     8458
Average number of shells per batch           ...    41.30 (23.60%)
Average number of basis functions per batch  ...   102.39 (22.70%)
Average number of large shells per batch     ...    32.42 (78.49%)
Average number of large basis fcns per batch ...    79.45 (77.59%)
Maximum spatial batch extension              ...  13.24, 19.88, 15.28 au
Average spatial batch extension              ...   0.10,  0.11,  0.11 au

Final grid set up in    2.1 sec
Final integration                            ... done (   0.4 sec)
Change in XC energy                          ...     0.000253794
Integrated number of electrons               ...    85.999985220
Previous integrated no of electrons          ...    85.999902499
Old exchange energy                            =    -17.653518484 Eh
New exchange energy                            =    -17.653562611 Eh
Exchange energy change after final integration =     -0.000044126 Eh
Total energy after final integration           =   -499.493702952 Eh
Final COS-X integration done in                =     3.123 sec

----------------
TOTAL SCF ENERGY
----------------

Total Energy       :         -499.49370295 Eh          -13591.91466 eV

Components:
Nuclear Repulsion  :          562.34276273 Eh           15302.12452 eV
Electronic Energy  :        -1061.83646568 Eh          -28894.03918 eV
One Electron Energy:        -1785.92621354 Eh          -48597.52292 eV
Two Electron Energy:          724.08974786 Eh           19703.48375 eV

Virial components:
Potential Energy   :         -998.55221784 Eh          -27171.98724 eV
Kinetic Energy     :          499.05851489 Eh           13580.07259 eV
Virial Ratio       :            2.00087202


DFT components:
N(Alpha)           :       42.999992609968 electrons
N(Beta)            :       42.999992609968 electrons
N(Total)           :       85.999985219937 electrons
E(X)               :      -52.814411330753 Eh       
E(C)               :       -2.834156683555 Eh       
E(XC)              :      -55.648568014308 Eh       
DFET-embed. en.    :        0.000000000000 Eh       

---------------
SCF CONVERGENCE
---------------

  Last Energy change         ...   -3.4372e-09  Tolerance :   1.0000e-08
  Last MAX-Density change    ...    9.9920e-16  Tolerance :   1.0000e-07
  Last RMS-Density change    ...    1.5072e-17  Tolerance :   5.0000e-09
  Last Orbital Gradient      ...    8.6123e-07  Tolerance :   1.0000e-05
  Last Orbital Rotation      ...    3.3039e-06  Tolerance :   1.0000e-05

             **** THE GBW FILE WAS UPDATED (pht.gbw) ****
             **** DENSITY FILE WAS UPDATED (pht.scfp) ****
             **** ENERGY FILE WAS UPDATED (pht.en.tmp) ****
             **** THE GBW FILE WAS UPDATED (pht.gbw) ****
             **** DENSITY FILE WAS UPDATED (pht.scfp) ****
----------------
ORBITAL ENERGIES
----------------

  NO   OCC          E(Eh)            E(eV) 
   0   2.0000     -10.259502      -279.1752 
   1   2.0000     -10.251076      -278.9460 
   2   2.0000     -10.248179      -278.8671 
   3   2.0000     -10.243917      -278.7512 
   4   2.0000     -10.243582      -278.7420 
   5   2.0000     -10.241242      -278.6784 
   6   2.0000     -10.236228      -278.5419 
   7   2.0000     -10.222594      -278.1709 
   8   2.0000     -10.222235      -278.1612 
   9   2.0000     -10.218047      -278.0472 
  10   2.0000     -10.217975      -278.0452 
  11   2.0000     -10.217403      -278.0297 
  12   2.0000     -10.216756      -278.0121 
  13   2.0000      -0.907598       -24.6970 
  14   2.0000      -0.844925       -22.9916 
  15   2.0000      -0.832455       -22.6523 
  16   2.0000      -0.812634       -22.1129 
  17   2.0000      -0.797755       -21.7080 
  18   2.0000      -0.779005       -21.1978 
  19   2.0000      -0.744707       -20.2645 
  20   2.0000      -0.675153       -18.3718 
  21   2.0000      -0.659871       -17.9560 
  22   2.0000      -0.640854       -17.4385 
  23   2.0000      -0.594511       -16.1775 
  24   2.0000      -0.573979       -15.6188 
  25   2.0000      -0.531944       -14.4749 
  26   2.0000      -0.492213       -13.3938 
  27   2.0000      -0.486125       -13.2281 
  28   2.0000      -0.484032       -13.1712 
  29   2.0000      -0.483865       -13.1666 
  30   2.0000      -0.475639       -12.9428 
  31   2.0000      -0.465408       -12.6644 
  32   2.0000      -0.412666       -11.2292 
  33   2.0000      -0.389230       -10.5915 
  34   2.0000      -0.388797       -10.5797 
  35   2.0000      -0.381601       -10.3839 
  36   2.0000      -0.378015       -10.2863 
  37   2.0000      -0.337780        -9.1915 
  38   2.0000      -0.323454        -8.8016 
  39   2.0000      -0.288775        -7.8580 
  40   2.0000      -0.280244        -7.6258 
  41   2.0000      -0.247826        -6.7437 
  42   2.0000      -0.234164        -6.3719 
  43   0.0000      -0.060201        -1.6381 
  44   0.0000      -0.037859        -1.0302 
  45   0.0000      -0.015726        -0.4279 
  46   0.0000       0.005020         0.1366 
  47   0.0000       0.049630         1.3505 
  48   0.0000       0.070838         1.9276 
  49   0.0000       0.085505         2.3267 
  50   0.0000       0.088518         2.4087 
  51   0.0000       0.097398         2.6503 
  52   0.0000       0.098164         2.6712 
  53   0.0000       0.099719         2.7135 
  54   0.0000       0.117588         3.1997 
  55   0.0000       0.131974         3.5912 
  56   0.0000       0.135719         3.6931 
  57   0.0000       0.136185         3.7058 
  58   0.0000       0.138046         3.7564 
  59   0.0000       0.139650         3.8001 
  60   0.0000       0.157025         4.2729 
  61   0.0000       0.162956         4.4343 
  62   0.0000       0.186708         5.0806 
  63   0.0000       0.199311         5.4235 
  64   0.0000       0.202612         5.5134 
  65   0.0000       0.205262         5.5855 
  66   0.0000       0.207166         5.6373 
  67   0.0000       0.211931         5.7669 
  68   0.0000       0.221262         6.0208 
  69   0.0000       0.227562         6.1923 
  70   0.0000       0.232971         6.3395 
  71   0.0000       0.233958         6.3663 
  72   0.0000       0.237823         6.4715 
  73   0.0000       0.239407         6.5146 
  74   0.0000       0.248583         6.7643 
  75   0.0000       0.254802         6.9335 
  76   0.0000       0.255854         6.9621 
  77   0.0000       0.257328         7.0023 
  78   0.0000       0.275583         7.4990 
  79   0.0000       0.282510         7.6875 
  80   0.0000       0.291345         7.9279 
  81   0.0000       0.295780         8.0486 
  82   0.0000       0.296436         8.0664 
  83   0.0000       0.334179         9.0935 
  84   0.0000       0.337557         9.1854 
  85   0.0000       0.345900         9.4124 
  86   0.0000       0.347730         9.4622 
  87   0.0000       0.367635        10.0039 
  88   0.0000       0.368407        10.0249 
  89   0.0000       0.372645        10.1402 
  90   0.0000       0.398336        10.8393 
  91   0.0000       0.410073        11.1587 
  92   0.0000       0.411639        11.2013 
  93   0.0000       0.418137        11.3781 
  94   0.0000       0.421447        11.4681 
  95   0.0000       0.434706        11.8289 
  96   0.0000       0.444145        12.0858 
  97   0.0000       0.451376        12.2826 
  98   0.0000       0.453785        12.3481 
  99   0.0000       0.456149        12.4125 
 100   0.0000       0.464821        12.6484 
 101   0.0000       0.472310        12.8522 
 102   0.0000       0.485728        13.2173 
 103   0.0000       0.494957        13.4685 
 104   0.0000       0.505416        13.7531 
 105   0.0000       0.506629        13.7861 
 106   0.0000       0.508568        13.8388 
 107   0.0000       0.509124        13.8540 
 108   0.0000       0.509877        13.8745 
 109   0.0000       0.518012        14.0958 
 110   0.0000       0.522026        14.2051 
 111   0.0000       0.528810        14.3897 
 112   0.0000       0.533748        14.5240 
 113   0.0000       0.539126        14.6704 
 114   0.0000       0.547628        14.9017 
 115   0.0000       0.569632        15.5005 
 116   0.0000       0.590833        16.0774 
 117   0.0000       0.595334        16.1999 
 118   0.0000       0.609320        16.5804 
 119   0.0000       0.615461        16.7475 
 120   0.0000       0.622437        16.9374 
 121   0.0000       0.639202        17.3936 
 122   0.0000       0.679518        18.4906 
 123   0.0000       0.680150        18.5078 
 124   0.0000       0.683564        18.6007 
 125   0.0000       0.690704        18.7950 
 126   0.0000       0.693798        18.8792 
 127   0.0000       0.697378        18.9766 
 128   0.0000       0.699715        19.0402 
 129   0.0000       0.713617        19.4185 
 130   0.0000       0.729418        19.8485 
 131   0.0000       0.742748        20.2112 
 132   0.0000       0.744471        20.2581 
 133   0.0000       0.752143        20.4668 
 134   0.0000       0.771160        20.9843 
 135   0.0000       0.786754        21.4087 
 136   0.0000       0.790770        21.5180 
 137   0.0000       0.808828        22.0093 
 138   0.0000       0.837424        22.7875 
 139   0.0000       0.845174        22.9984 
 140   0.0000       0.851745        23.1772 
 141   0.0000       0.857004        23.3203 
 142   0.0000       0.864544        23.5254 
 143   0.0000       0.873672        23.7738 
 144   0.0000       0.879238        23.9253 
 145   0.0000       0.899920        24.4881 
 146   0.0000       0.905737        24.6463 
 147   0.0000       0.909747        24.7555 
 148   0.0000       0.934988        25.4423 
 149   0.0000       0.941477        25.6189 
 150   0.0000       0.957548        26.0562 
 151   0.0000       0.969260        26.3749 
 152   0.0000       0.972343        26.4588 
 153   0.0000       0.988040        26.8859 
 154   0.0000       0.991386        26.9770 
 155   0.0000       1.005340        27.3567 
 156   0.0000       1.012742        27.5581 
 157   0.0000       1.021951        27.8087 
 158   0.0000       1.038570        28.2609 
 159   0.0000       1.057262        28.7696 
 160   0.0000       1.079045        29.3623 
 161   0.0000       1.085242        29.5309 
 162   0.0000       1.091468        29.7003 
 163   0.0000       1.098282        29.8858 
 164   0.0000       1.153265        31.3819 
 165   0.0000       1.163398        31.6577 
 166   0.0000       1.163786        31.6682 
 167   0.0000       1.181711        32.1560 
 168   0.0000       1.202783        32.7294 
 169   0.0000       1.213786        33.0288 
 170   0.0000       1.227296        33.3964 
 171   0.0000       1.229175        33.4475 
 172   0.0000       1.235337        33.6152 
 173   0.0000       1.244293        33.8589 
 174   0.0000       1.271162        34.5901 
 175   0.0000       1.287798        35.0428 
 176   0.0000       1.304046        35.4849 
 177   0.0000       1.315566        35.7984 
 178   0.0000       1.347694        36.6726 
 179   0.0000       1.375672        37.4339 
 180   0.0000       1.379104        37.5273 
 181   0.0000       1.389158        37.8009 
 182   0.0000       1.404612        38.2214 
 183   0.0000       1.415002        38.5042 
 184   0.0000       1.416810        38.5534 
 185   0.0000       1.430662        38.9303 
 186   0.0000       1.435924        39.0735 
 187   0.0000       1.441669        39.2298 
 188   0.0000       1.451730        39.5036 
 189   0.0000       1.462650        39.8007 
 190   0.0000       1.477002        40.1913 
 191   0.0000       1.481695        40.3190 
 192   0.0000       1.486724        40.4558 
 193   0.0000       1.491202        40.5777 
 194   0.0000       1.505443        40.9652 
 195   0.0000       1.513430        41.1825 
 196   0.0000       1.515468        41.2380 
 197   0.0000       1.542081        41.9622 
 198   0.0000       1.575731        42.8778 
 199   0.0000       1.585289        43.1379 
 200   0.0000       1.592480        43.3336 
 201   0.0000       1.592881        43.3445 
 202   0.0000       1.602709        43.6119 
 203   0.0000       1.605289        43.6821 
 204   0.0000       1.621950        44.1355 
 205   0.0000       1.630532        44.3690 
 206   0.0000       1.650451        44.9111 
 207   0.0000       1.694080        46.0983 
 208   0.0000       1.717417        46.7333 
 209   0.0000       1.721993        46.8578 
 210   0.0000       1.723283        46.8929 
 211   0.0000       1.726799        46.9886 
 212   0.0000       1.751622        47.6641 
 213   0.0000       1.766041        48.0564 
 214   0.0000       1.776293        48.3354 
 215   0.0000       1.810373        49.2628 
 216   0.0000       1.816313        49.4244 
 217   0.0000       1.824693        49.6524 
 218   0.0000       1.828401        49.7533 
 219   0.0000       1.850221        50.3471 
 220   0.0000       1.860233        50.6195 
 221   0.0000       1.873771        50.9879 
 222   0.0000       1.890335        51.4386 
 223   0.0000       1.900847        51.7247 
 224   0.0000       1.935180        52.6589 
 225   0.0000       1.949321        53.0437 
 226   0.0000       1.971878        53.6575 
 227   0.0000       1.990933        54.1760 
 228   0.0000       1.995680        54.3052 
 229   0.0000       1.997426        54.3527 
 230   0.0000       2.015165        54.8354 
 231   0.0000       2.035048        55.3765 
 232   0.0000       2.081346        56.6363 
 233   0.0000       2.089246        56.8513 
 234   0.0000       2.095044        57.0091 
 235   0.0000       2.133749        58.0623 
 236   0.0000       2.169737        59.0415 
 237   0.0000       2.173257        59.1373 
 238   0.0000       2.180605        59.3373 
 239   0.0000       2.187765        59.5321 
 240   0.0000       2.209858        60.1333 
 241   0.0000       2.217966        60.3539 
 242   0.0000       2.254256        61.3414 
 243   0.0000       2.280667        62.0601 
 244   0.0000       2.284481        62.1639 
 245   0.0000       2.316655        63.0394 
 246   0.0000       2.382951        64.8434 
 247   0.0000       2.397616        65.2424 
 248   0.0000       2.400127        65.3108 
 249   0.0000       2.424391        65.9710 
 250   0.0000       2.428025        66.0699 
 251   0.0000       2.438595        66.3575 
 252   0.0000       2.445095        66.5344 
 253   0.0000       2.447560        66.6015 
 254   0.0000       2.480422        67.4957 
 255   0.0000       2.490427        67.7680 
 256   0.0000       2.499482        68.0144 
 257   0.0000       2.520935        68.5981 
 258   0.0000       2.528878        68.8143 
 259   0.0000       2.531532        68.8865 
 260   0.0000       2.547046        69.3086 
 261   0.0000       2.555588        69.5411 
 262   0.0000       2.566435        69.8363 
 263   0.0000       2.591797        70.5264 
 264   0.0000       2.598135        70.6989 
 265   0.0000       2.600345        70.7590 
 266   0.0000       2.603439        70.8432 
 267   0.0000       2.637026        71.7571 
 268   0.0000       2.642468        71.9052 
 269   0.0000       2.647098        72.0312 
 270   0.0000       2.668940        72.6256 
 271   0.0000       2.675365        72.8004 
 272   0.0000       2.685886        73.0867 
 273   0.0000       2.690831        73.2212 
 274   0.0000       2.701059        73.4995 
 275   0.0000       2.714512        73.8656 
 276   0.0000       2.721575        74.0578 
 277   0.0000       2.729342        74.2692 
 278   0.0000       2.736307        74.4587 
 279   0.0000       2.763731        75.2049 
 280   0.0000       2.766064        75.2684 
 281   0.0000       2.769469        75.3611 
 282   0.0000       2.774315        75.4930 
 283   0.0000       2.784389        75.7671 
 284   0.0000       2.799449        76.1769 
 285   0.0000       2.805983        76.3547 
 286   0.0000       2.807444        76.3944 
 287   0.0000       2.811308        76.4996 
 288   0.0000       2.813812        76.5677 
 289   0.0000       2.818259        76.6887 
 290   0.0000       2.828504        76.9675 
 291   0.0000       2.839315        77.2617 
 292   0.0000       2.844465        77.4018 
 293   0.0000       2.847163        77.4753 
 294   0.0000       2.848420        77.5094 
 295   0.0000       2.855445        77.7006 
 296   0.0000       2.868970        78.0686 
 297   0.0000       2.872749        78.1715 
 298   0.0000       2.877921        78.3122 
 299   0.0000       2.886658        78.5500 
 300   0.0000       2.891218        78.6740 
 301   0.0000       2.906216        79.0822 
 302   0.0000       2.929907        79.7268 
 303   0.0000       2.951994        80.3278 
 304   0.0000       2.953229        80.3614 
 305   0.0000       2.958806        80.5132 
 306   0.0000       2.971000        80.8450 
 307   0.0000       2.974546        80.9415 
 308   0.0000       2.992559        81.4317 
 309   0.0000       3.001766        81.6822 
 310   0.0000       3.018097        82.1266 
 311   0.0000       3.032436        82.5168 
 312   0.0000       3.036760        82.6344 
 313   0.0000       3.046767        82.9067 
 314   0.0000       3.056027        83.1587 
 315   0.0000       3.070639        83.5563 
 316   0.0000       3.075539        83.6897 
 317   0.0000       3.083299        83.9008 
 318   0.0000       3.087979        84.0282 
 319   0.0000       3.094603        84.2084 
 320   0.0000       3.104256        84.4711 
 321   0.0000       3.109014        84.6006 
 322   0.0000       3.143116        85.5285 
 323   0.0000       3.146947        85.6328 
 324   0.0000       3.149515        85.7027 
 325   0.0000       3.159460        85.9733 
 326   0.0000       3.190605        86.8208 
 327   0.0000       3.201465        87.1163 
 328   0.0000       3.213530        87.4446 
 329   0.0000       3.218881        87.5902 
 330   0.0000       3.222552        87.6901 
 331   0.0000       3.248857        88.4059 
 332   0.0000       3.256068        88.6021 
 333   0.0000       3.261785        88.7577 
 334   0.0000       3.263291        88.7987 
 335   0.0000       3.285701        89.4085 
 336   0.0000       3.290460        89.5380 
 337   0.0000       3.304635        89.9237 
 338   0.0000       3.306452        89.9731 
 339   0.0000       3.320892        90.3661 
 340   0.0000       3.332241        90.6749 
 341   0.0000       3.336595        90.7934 
 342   0.0000       3.350443        91.1702 
 343   0.0000       3.369336        91.6843 
 344   0.0000       3.372440        91.7688 
 345   0.0000       3.387219        92.1709 
 346   0.0000       3.392007        92.3012 
 347   0.0000       3.400127        92.5222 
 348   0.0000       3.436664        93.5164 
 349   0.0000       3.450691        93.8981 
 350   0.0000       3.467066        94.3437 
 351   0.0000       3.469138        94.4000 
 352   0.0000       3.480271        94.7030 
 353   0.0000       3.486731        94.8788 
 354   0.0000       3.494101        95.0793 
 355   0.0000       3.499226        95.2188 
 356   0.0000       3.528879        96.0257 
 357   0.0000       3.542665        96.4008 
 358   0.0000       3.556245        96.7703 
 359   0.0000       3.572343        97.2084 
 360   0.0000       3.581585        97.4599 
 361   0.0000       3.596447        97.8643 
 362   0.0000       3.617713        98.4430 
 363   0.0000       3.633755        98.8795 
 364   0.0000       3.656166        99.4893 
 365   0.0000       3.668399        99.8222 
 366   0.0000       3.683981       100.2462 
 367   0.0000       3.692426       100.4760 
 368   0.0000       3.704638       100.8083 
 369   0.0000       3.720282       101.2340 
 370   0.0000       3.741285       101.8055 
 371   0.0000       3.784892       102.9921 
 372   0.0000       3.802847       103.4807 
 373   0.0000       3.816192       103.8439 
 374   0.0000       3.828425       104.1767 
 375   0.0000       3.864157       105.1490 
 376   0.0000       3.873274       105.3971 
 377   0.0000       3.975011       108.1656 
 378   0.0000       4.007742       109.0562 
 379   0.0000       4.018307       109.3437 
 380   0.0000       4.038932       109.9049 
 381   0.0000       4.096414       111.4691 
 382   0.0000       4.108513       111.7983 
 383   0.0000       4.122882       112.1893 
 384   0.0000       4.135632       112.5363 
 385   0.0000       4.144159       112.7683 
 386   0.0000       4.210750       114.5803 
 387   0.0000       4.221418       114.8706 
 388   0.0000       4.233658       115.2037 
 389   0.0000       4.252791       115.7243 
 390   0.0000       4.258708       115.8853 
 391   0.0000       4.289320       116.7183 
 392   0.0000       4.299455       116.9941 
 393   0.0000       4.304678       117.1362 
 394   0.0000       4.316024       117.4450 
 395   0.0000       4.319455       117.5383 
 396   0.0000       4.387665       119.3944 
 397   0.0000       4.405826       119.8886 
 398   0.0000       4.416854       120.1887 
 399   0.0000       4.489705       122.1711 
 400   0.0000       4.507923       122.6668 
 401   0.0000       4.513588       122.8210 
 402   0.0000       4.525052       123.1329 
 403   0.0000       4.562669       124.1565 
 404   0.0000       4.576767       124.5402 
 405   0.0000       4.648251       126.4854 
 406   0.0000       4.676052       127.2418 
 407   0.0000       4.712711       128.2394 
 408   0.0000       4.721049       128.4663 
 409   0.0000       4.733137       128.7952 
 410   0.0000       4.743926       129.0888 
 411   0.0000       4.767655       129.7345 
 412   0.0000       4.806095       130.7805 
 413   0.0000       4.864980       132.3828 
 414   0.0000       4.936801       134.3372 
 415   0.0000       4.997433       135.9871 
 416   0.0000       5.004788       136.1872 
 417   0.0000       5.026032       136.7653 
 418   0.0000       5.034729       137.0019 
 419   0.0000       5.119963       139.3213 
 420   0.0000       5.162297       140.4733 
 421   0.0000       5.248275       142.8128 
 422   0.0000       5.255361       143.0056 
 423   0.0000       5.319020       144.7379 
 424   0.0000       5.337413       145.2384 
 425   0.0000       5.367606       146.0600 
 426   0.0000       5.379435       146.3819 
 427   0.0000       5.387434       146.5995 
 428   0.0000       5.444814       148.1609 
 429   0.0000       5.463068       148.6576 
 430   0.0000       5.481601       149.1619 
 431   0.0000       5.608739       152.6215 
 432   0.0000       5.637561       153.4058 
 433   0.0000       5.709869       155.3734 
 434   0.0000       5.842545       158.9837 
 435   0.0000       5.910743       160.8395 
 436   0.0000       6.105812       166.1476 
 437   0.0000       6.166919       167.8104 
 438   0.0000      22.441103       610.6535 
 439   0.0000      22.890959       622.8947 
 440   0.0000      22.946429       624.4041 
 441   0.0000      22.973274       625.1346 
 442   0.0000      23.074517       627.8895 
 443   0.0000      23.093764       628.4133 
 444   0.0000      23.281948       633.5340 
 445   0.0000      23.518554       639.9724 
 446   0.0000      23.741958       646.0515 
 447   0.0000      23.878353       649.7630 
 448   0.0000      24.045153       654.3019 
 449   0.0000      24.869385       676.7304 
 450   0.0000      25.066068       682.0824 
------------------
MOLECULAR ORBITALS
------------------
                      0         1         2         3         4         5   
                 -10.25950 -10.25108 -10.24818 -10.24392 -10.24358 -10.24124
                   2.00000   2.00000   2.00000   2.00000   2.00000   2.00000
                  --------  --------  --------  --------  --------  --------
  0C   1s         0.000010 -0.000073 -0.000105 -0.000014 -0.003568 -0.000052
  0C   2s         0.000001 -0.000014 -0.000019 -0.000019 -0.004588 -0.000034
  0C   3s         0.000177 -0.001090 -0.000632  0.000448  0.003922 -0.000006
  0C   4s        -0.001137 -0.002651 -0.003224 -0.003837 -0.048969 -0.003513
  0C   5s        -0.006156  0.010642  0.020784 -0.008930  0.028799 -0.000055
  0C   1pz       -0.000018  0.000141  0.000097 -0.000022  0.000028  0.000028
  0C   1px        0.000027 -0.000228 -0.000155  0.000034 -0.000014 -0.000034
  0C   1py        0.000014 -0.000109 -0.000083  0.000020 -0.000003 -0.000014
  0C   2pz        0.000458  0.000828  0.001363  0.001283  0.015332  0.001078
  0C   2px       -0.000730 -0.001434 -0.002286 -0.001937 -0.024663 -0.001674
  0C   2py       -0.000368 -0.000895 -0.001235 -0.000986 -0.012551 -0.000894
  0C   3pz        0.000512 -0.001061 -0.001941  0.001074 -0.002735  0.000275
  0C   3px       -0.000782  0.001655  0.003248 -0.001748  0.003913 -0.000759
  0C   3py       -0.000411  0.000819  0.001639 -0.000968  0.001985 -0.000466
  0C   1dz2       0.000004 -0.000008  0.000008  0.000009  0.000040 -0.000001
  0C   1dxz       0.000019 -0.000029  0.000019  0.000055  0.000250  0.000028
  0C   1dyz       0.000009 -0.000016  0.000009  0.000026  0.000126  0.000014
  0C   1dx2y2    -0.000011  0.000017 -0.000017 -0.000032 -0.000143 -0.000013
  0C   1dxy      -0.000015  0.000023 -0.000018 -0.000038 -0.000187 -0.000011
  0C   2dz2       0.000023  0.000039  0.000125  0.000089  0.001318  0.000128
  0C   2dxz       0.000129  0.000210  0.000729  0.000442  0.005641  0.000392
  0C   2dyz       0.000064  0.000127  0.000341  0.000249  0.002829  0.000229
  0C   2dx2y2    -0.000075 -0.000095 -0.000474 -0.000244 -0.003406 -0.000251
  0C   2dxy      -0.000103 -0.000259 -0.000613 -0.000365 -0.004699 -0.000392
  0C   1f0        0.000006  0.000073 -0.000032 -0.000020  0.000086 -0.000022
  0C   1f+1      -0.000001  0.000011 -0.000002 -0.000006  0.000128  0.000000
  0C   1f-1       0.000003  0.000018 -0.000009 -0.000007 -0.000209 -0.000002
  0C   1f+2      -0.000006 -0.000087  0.000027  0.000020 -0.000049  0.000022
  0C   1f-2      -0.000004 -0.000086  0.000021  0.000025 -0.000363  0.000026
  0C   1f+3       0.000001 -0.000003  0.000007 -0.000001 -0.000163 -0.000000
  0C   1f-3      -0.000007 -0.000103  0.000018  0.000025 -0.000097  0.000031
  1H   1s         0.000006 -0.000067 -0.000075  0.000010  0.000018 -0.000015
  1H   2s        -0.000133  0.000137  0.000409 -0.000070  0.000506  0.000166
  1H   3s         0.000741 -0.000806 -0.001428  0.000482 -0.002982 -0.000581
  1H   1pz       -0.000021 -0.000023 -0.000003 -0.000023 -0.000469  0.000007
  1H   1px       -0.000016  0.000002  0.000058  0.000008  0.000489  0.000026
  1H   1py        0.000010  0.000012  0.000006  0.000014  0.000339 -0.000004
  2H   1s         0.000006 -0.000055 -0.000067  0.000007  0.000026 -0.000020
  2H   2s        -0.000123  0.000242  0.000498 -0.000116  0.000604  0.000105
  2H   3s         0.000730 -0.000830 -0.001488  0.000512 -0.002877 -0.000468
  2H   1pz        0.000021 -0.000006 -0.000055  0.000007 -0.000277 -0.000019
  2H   1px        0.000008  0.000016  0.000040  0.000018  0.000646  0.000009
  2H   1py        0.000016  0.000008  0.000001  0.000017  0.000391 -0.000002
  3H   1s         0.000006 -0.000076 -0.000079  0.000010  0.000015 -0.000019
  3H   2s        -0.000130  0.000112  0.000283 -0.000072  0.000482  0.000125
  3H   3s         0.000728 -0.000807 -0.001426  0.000450 -0.002935 -0.000581
  3H   1pz       -0.000003 -0.000005 -0.000021 -0.000010 -0.000388 -0.000004
  3H   1px        0.000012  0.000005  0.000028  0.000020  0.000640 -0.000003
  3H   1py       -0.000025 -0.000015  0.000024 -0.000006  0.000157  0.000022
  4C   1s         0.000029  0.001030  0.002069 -0.001222 -0.458246  0.000346
  4C   2s         0.000029  0.001640  0.002832 -0.001534 -0.596130  0.000554
  4C   3s        -0.000054 -0.008627 -0.004132 -0.001135 -0.059671 -0.002641
  4C   4s        -0.004539  0.072798  0.054678  0.009723  0.116349  0.041182
  4C   5s        -0.026466  0.055073  0.091244 -0.013844  0.055670  0.039607
  4C   1pz        0.000024  0.000373  0.000130  0.000048  0.000260  0.000008
  4C   1px       -0.000033 -0.000644 -0.000210 -0.000085 -0.000435 -0.000040
  4C   1py       -0.000015 -0.000315 -0.000109 -0.000045 -0.000195 -0.000025
  4C   2pz        0.001249 -0.019886 -0.012869 -0.000385  0.001011 -0.008725
  4C   2px       -0.001955  0.030190  0.019199  0.001005 -0.002693  0.013878
  4C   2py       -0.000953  0.014327  0.009408  0.000474 -0.001469  0.006680
  4C   3pz        0.006198 -0.013504 -0.025945  0.007351 -0.015908 -0.003831
  4C   3px       -0.009862  0.021216  0.039913 -0.011344  0.026101  0.007083
  4C   3py       -0.004886  0.010596  0.019841 -0.005477  0.012902  0.003623
  4C   1dz2       0.000008  0.000050  0.000055  0.000029  0.000335  0.000011
  4C   1dxz       0.000048  0.000035  0.000186  0.000118  0.001780  0.000006
  4C   1dyz       0.000024  0.000021  0.000101  0.000060  0.000886  0.000009
  4C   1dx2y2    -0.000028 -0.000047 -0.000112 -0.000072 -0.001042 -0.000007
  4C   1dxy      -0.000036 -0.000067 -0.000171 -0.000100 -0.001375 -0.000021
  4C   2dz2      -0.000032 -0.001636 -0.001118 -0.000407 -0.003603 -0.000905
  4C   2dxz      -0.000136 -0.010044 -0.007181 -0.001301 -0.020124 -0.004367
  4C   2dyz      -0.000076 -0.004741 -0.003572 -0.000648 -0.010095 -0.002112
  4C   2dx2y2     0.000076  0.005981  0.004048  0.000867  0.011555  0.002682
  4C   2dxy       0.000121  0.007250  0.005367  0.001139  0.015518  0.003372
  4C   1f0        0.000004  0.000279  0.000000 -0.000061 -0.000190  0.000021
  4C   1f+1       0.000003  0.000114  0.000035 -0.000019 -0.000036 -0.000009
  4C   1f-1       0.000000  0.000052  0.000017 -0.000010 -0.000013 -0.000004
  4C   1f+2      -0.000005 -0.000309 -0.000014  0.000062  0.000185 -0.000022
  4C   1f-2      -0.000006 -0.000366 -0.000008  0.000081  0.000255 -0.000017
  4C   1f+3      -0.000002 -0.000084 -0.000005  0.000013  0.000034 -0.000012
  4C   1f-3      -0.000004 -0.000306  0.000014  0.000071  0.000230 -0.000024
  5C   1s        -0.000008  0.009795  0.008024 -0.000212 -0.090184  0.000796
  5C   2s         0.000016  0.012887  0.010145 -0.000380 -0.117039  0.000832
  5C   3s        -0.000687 -0.002734  0.006153  0.003026 -0.020752  0.005336
  5C   4s         0.002855  0.008886 -0.040928 -0.016989  0.006461 -0.047210
  5C   5s        -0.009736 -0.030305 -0.125083  0.033700  0.009604  0.022750
  5C   1pz       -0.000010 -0.000252 -0.000358 -0.000126 -0.000102 -0.000156
  5C   1px        0.000019  0.000366  0.000571  0.000186  0.000180  0.000237
  5C   1py        0.000010  0.000181  0.000265  0.000086  0.000090  0.000108
  5C   2pz        0.000945 -0.044441 -0.017158  0.002501 -0.025839 -0.005763
  5C   2px       -0.001393  0.065890  0.025720 -0.003252  0.038271  0.009285
  5C   2py       -0.000689  0.031699  0.012627 -0.001594  0.018242  0.004564
  5C   3pz        0.016246 -0.024820 -0.022603  0.000066 -0.042030 -0.028030
  5C   3px       -0.024161  0.037963  0.036730 -0.000689  0.061781  0.040075
  5C   3py       -0.011548  0.018051  0.017264 -0.000531  0.029751  0.019108
  5C   1dz2       0.000010  0.000016 -0.000058  0.000008 -0.000041 -0.000022
  5C   1dxz       0.000069  0.000054 -0.000223  0.000067 -0.000078 -0.000027
  5C   1dyz       0.000034  0.000017 -0.000107  0.000030 -0.000030 -0.000019
  5C   1dx2y2    -0.000038 -0.000043  0.000148 -0.000040  0.000069  0.000023
  5C   1dxy      -0.000050 -0.000035  0.000182 -0.000046  0.000074  0.000040
  5C   2dz2      -0.000188  0.000497  0.001562  0.000077 -0.000560  0.000956
  5C   2dxz      -0.000926 -0.003710  0.005581  0.003080 -0.008984  0.006734
  5C   2dyz      -0.000457 -0.001416  0.002561  0.001502 -0.004507  0.003317
  5C   2dx2y2     0.000552  0.001839 -0.003802 -0.001519  0.004519 -0.003790
  5C   2dxy       0.000720  0.001428 -0.004468 -0.001947  0.006093 -0.004914
  5C   1f0       -0.000009 -0.000063 -0.000217 -0.000236 -0.000241 -0.000059
  5C   1f+1      -0.000004 -0.000069 -0.000120 -0.000104  0.000002 -0.000029
  5C   1f-1      -0.000002 -0.000037 -0.000053 -0.000049  0.000002 -0.000013
  5C   1f+2       0.000011  0.000080  0.000266  0.000265  0.000219  0.000082
  5C   1f-2       0.000014  0.000100  0.000284  0.000324  0.000289  0.000079
  5C   1f+3       0.000003  0.000018  0.000083  0.000061  0.000056  0.000029
  5C   1f-3       0.000013  0.000057  0.000226  0.000267  0.000286  0.000069
  6C   1s        -0.000074  0.402814  0.236203 -0.006235  0.004423 -0.002431
  6C   2s        -0.000021  0.523640  0.307261 -0.008402  0.005484 -0.003361
  6C   3s        -0.000750  0.060145  0.027156  0.005823  0.006526  0.003029
  6C   4s        -0.002715 -0.124040 -0.128024 -0.034664 -0.038161 -0.016092
[...]
 => Orbital Window: 13...42 -> 43...450

Reading the RPA file                     ... done
Norm of the RPA vector                   ... 1.000000000
Making the RPA (pseudo)densities         ... done
Making operators G(D) and Q(T)           ... done
Transforming the Fock operators          ... done
Making the frozen-core relaxed density   ... done
Constructing the G(H) operator           ... done
Transforming the G(H) operator           ... done
Calculating the RPA Lagrangian           ... done
Solving the Z-vector equations           ... done
Finalizing the relaxed density           ... done
Storing the relaxed density              ... done
Constructing the G(Z) operator           ... done
Transforming the G(Z) operator           ... done
Making the W-matrix                      ... done
Finalizing the W-matrix                  ... done
Transforming the W-matrix                ... done
Nuclear repulsion gradient               ... done
One-Electron gradient                    ... done
Prescreening matrices                    ... done
COSX-gradient                            ... done
Coulomb gradient (RI)                    ... done
Exchange-Correlation gradient            ... done
                 ---------------------------
                 EXCITED STATE GRADIENT DONE
                 ---------------------------


------------------
CARTESIAN GRADIENT
------------------

   1   C   :   -0.083031147   -0.045566060    0.051842709
   2   H   :    0.086685773   -0.018586716    0.050316025
   3   H   :    0.006342746   -0.038756689   -0.093119640
   4   H   :   -0.010716442    0.102875033   -0.009304645
   5   C   :    0.057156774    0.027643522   -0.037046689
   6   C   :   -0.081168808   -0.038441403    0.055122957
   7   C   :    0.074088491    0.035907278   -0.055649279
   8   C   :   -0.066972328   -0.033812232    0.052381299
   9   C   :    0.060184271    0.033250990   -0.052525020
  10   C   :   -0.057082137   -0.032874167    0.053149380
  11   C   :    0.030244483    0.019808887   -0.036035747
  12   C   :    0.004323819   -0.027696019    0.117212229
  13   H   :   -0.034853880    0.018474981   -0.130299386
  14   C   :    0.116255928    0.045128963    0.009970325
  15   H   :   -0.122109403   -0.039371831   -0.045552607
  16   C   :    0.063078463    0.044234603   -0.060476699
  17   H   :   -0.086461644   -0.060207485    0.084915396
  18   C   :    0.000289523    0.030216832   -0.124209728
  19   H   :    0.034736670   -0.016511689    0.129183414
  20   C   :   -0.111858913   -0.046686219   -0.004949716
  21   H   :    0.120626579    0.041389557    0.045322339

Difference to translation invariance:
           :   -0.0002411867    0.0004201358    0.0002469165

Norm of the cartesian gradient     ...    0.5076942723
RMS gradient                       ...    0.0639634660
MAX gradient                       ...    0.1302993861

-------
TIMINGS
-------

Total TD-DFT gradient time         ...       94.044 sec

Fock matrix formation       ....       6.701 sec  (  7.1%)
  Coulomb formation         ....       5.812 sec  ( 86.7% of F)
  RI-J                      ....       1.269 sec  ( 18.9% of F)
  Chain of spheres X        ....       4.530 sec  ( 67.6% of F)
  XC integration            ....       0.888 sec  ( 13.3% of F)
Z-vector equation           ....      64.632 sec  ( 68.7%)
One electron gradient       ....       1.544 sec  (  1.6%)
Prescreening matrices       ....       2.276 sec  (  2.4%)
RI-J Coulomb gradient       ....       3.385 sec  (  3.6%)
COSX gradient               ....       5.644 sec  (  6.0%)
XC gradient                 ....       9.110 sec  (  9.7%)

		************************************************************
		*      Energy Gradient Calculation For State    8 *
		************************************************************


           ************************************************************
           *        Program running with 28 parallel MPI-processes    *
           *              working on a common directory               *
           ************************************************************
------------------------------------------------------------------------------
                         ORCA SCF GRADIENT CALCULATION
------------------------------------------------------------------------------


-------------------
TD-DFT GRADIENT
-------------------

Reference wavefunction             ... RHF
State of interest                  ... 8
Basis dimension                    ... 451
DFT-XC contribution needed         ... YES
RI-approximation                   ... ON
CIS-vectors being read from        ... pht.cis

 => Number of Vectors found: 20
 => Orbital Window: 13...42 -> 43...450

Reading the RPA file                     ... done
Norm of the RPA vector                   ... 1.000000000
Making the RPA (pseudo)densities         ... done
Making operators G(D) and Q(T)           ... done
Transforming the Fock operators          ... done
Making the frozen-core relaxed density   ... done
Constructing the G(H) operator           ... done
Transforming the G(H) operator           ... done
Calculating the RPA Lagrangian           ... done
Solving the Z-vector equations           ... done
Finalizing the relaxed density           ... done
Storing the relaxed density              ... done
Constructing the G(Z) operator           ... done
Transforming the G(Z) operator           ... done
Making the W-matrix                      ... done
Finalizing the W-matrix                  ... done
Transforming the W-matrix                ... done
Nuclear repulsion gradient               ... done
One-Electron gradient                    ... done
Prescreening matrices                    ... done
COSX-gradient                            ... done
Coulomb gradient (RI)                    ... done
Exchange-Correlation gradient            ... done
                 ---------------------------
                 EXCITED STATE GRADIENT DONE
                 ---------------------------


------------------
CARTESIAN GRADIENT
------------------

   1   C   :   -0.081087465   -0.043265176    0.049938519
   2   H   :    0.086525031   -0.018920989    0.050025110
   3   H   :    0.006532535   -0.039071142   -0.092438457
   4   H   :   -0.011104370    0.101427995   -0.008695024
   5   C   :    0.036005033    0.018237109   -0.023481568
   6   C   :   -0.057637576   -0.027203501    0.039488813
   7   C   :    0.060494114    0.029390943   -0.045301396
   8   C   :   -0.066050114   -0.034106330    0.052213683
   9   C   :    0.068469631    0.037660721   -0.059334417
  10   C   :   -0.057429392   -0.031844078    0.053267533
  11   C   :    0.017164984    0.010109451   -0.022056546
  12   C   :    0.059357027    0.002464809    0.088679970
  13   H   :   -0.033202705    0.018997084   -0.130798344
  14   C   :    0.086224002    0.019408966    0.063283493
  15   H   :   -0.122233797   -0.039922648   -0.044129040
  16   C   :    0.073006182    0.051787018   -0.071667060
  17   H   :   -0.086623558   -0.060121164    0.084963810
  18   C   :   -0.050958987    0.001184671   -0.095055799
  19   H   :    0.033462950   -0.017254857    0.129093422
  20   C   :   -0.082511820   -0.020404355   -0.061451685
  21   H   :    0.121353832    0.041872650    0.043698946

Difference to translation invariance:
           :   -0.0002444610    0.0004271724    0.0002439626

Norm of the cartesian gradient     ...    0.4827353775
RMS gradient                       ...    0.0608189408
MAX gradient                       ...    0.1307983436

-------
TIMINGS
-------

Total TD-DFT gradient time         ...       93.848 sec

Fock matrix formation       ....       6.708 sec  (  7.1%)
  Coulomb formation         ....       5.818 sec  ( 86.7% of F)
  RI-J                      ....       1.284 sec  ( 19.1% of F)
  Chain of spheres X        ....       4.520 sec  ( 67.4% of F)
  XC integration            ....       0.889 sec  ( 13.3% of F)
Z-vector equation           ....      64.386 sec  ( 68.6%)
One electron gradient       ....       1.550 sec  (  1.7%)
Prescreening matrices       ....       2.274 sec  (  2.4%)
RI-J Coulomb gradient       ....       3.405 sec  (  3.6%)
COSX gradient               ....       5.634 sec  (  6.0%)
XC gradient                 ....       9.138 sec  (  9.7%)

		************************************************************
		*      Energy Gradient Calculation For State    9 *
		************************************************************


           ************************************************************
           *        Program running with 28 parallel MPI-processes    *
           *              working on a common directory               *
           ************************************************************
------------------------------------------------------------------------------
                         ORCA SCF GRADIENT CALCULATION
------------------------------------------------------------------------------


-------------------
TD-DFT GRADIENT
-------------------

Reference wavefunction             ... RHF
State of interest                  ... 9
Basis dimension                    ... 451
DFT-XC contribution needed         ... YES
RI-approximation                   ... ON
CIS-vectors being read from        ... pht.cis

 => Number of Vectors found: 20
 => Orbital Window: 13...42 -> 43...450

Reading the RPA file                     ... done
Norm of the RPA vector                   ... 1.000000000
Making the RPA (pseudo)densities         ... done
Making operators G(D) and Q(T)           ... done
Transforming the Fock operators          ... done
Making the frozen-core relaxed density   ... done
Constructing the G(H) operator           ... done
Transforming the G(H) operator           ... done
Calculating the RPA Lagrangian           ... done
Solving the Z-vector equations           ... done
Finalizing the relaxed density           ... done
Storing the relaxed density              ... done
Constructing the G(Z) operator           ... done
Transforming the G(Z) operator           ... done
Making the W-matrix                      ... done
Finalizing the W-matrix                  ... done
Transforming the W-matrix                ... done
Nuclear repulsion gradient               ... done
One-Electron gradient                    ... done
Prescreening matrices                    ... done
COSX-gradient                            ... done
Coulomb gradient (RI)                    ... done
Exchange-Correlation gradient            ... done
                 ---------------------------
                 EXCITED STATE GRADIENT DONE
                 ---------------------------


------------------
CARTESIAN GRADIENT
------------------

   1   C   :   -0.085580828   -0.038496479    0.050522839
   2   H   :    0.086391003   -0.021241236    0.050438857
   3   H   :    0.006752339   -0.041491714   -0.091601297
   4   H   :   -0.011197459    0.100434556   -0.008015134
   5   C   :    0.041030592    0.019665087   -0.026090261
   6   C   :   -0.063752692   -0.030162343    0.043425454
   7   C   :    0.065354370    0.031498898   -0.048697836
   8   C   :   -0.069891381   -0.036621238    0.056227369
   9   C   :    0.071993125    0.040743793   -0.064049293
  10   C   :   -0.055777518   -0.032398455    0.053524992
  11   C   :   -0.002339855   -0.000361971   -0.001865803
  12   C   :    0.065132477    0.008583472    0.071059109
  13   H   :   -0.033309368    0.018415686   -0.130108602
  14   C   :    0.076417275    0.013656484    0.068638924
  15   H   :   -0.121397420   -0.039495335   -0.044237709
  16   C   :    0.083509415    0.059757959   -0.084251656
  17   H   :   -0.087406058   -0.060632287    0.085681529
  18   C   :   -0.055010948   -0.003272676   -0.084409154
  19   H   :    0.033684271   -0.016915109    0.128181267
  20   C   :   -0.065590251   -0.012499934   -0.067996331
  21   H   :    0.120738629    0.041234000    0.043889604

Difference to translation invariance:
           :   -0.0002502805    0.0004011573    0.0002668680

Norm of the cartesian gradient     ...    0.4849730965
RMS gradient                       ...    0.0611008669
MAX gradient                       ...    0.1301086016

-------
TIMINGS
-------

Total TD-DFT gradient time         ...      101.155 sec

Fock matrix formation       ....       6.942 sec  (  6.9%)
  Coulomb formation         ....       6.043 sec  ( 87.1% of F)
  RI-J                      ....       1.315 sec  ( 18.9% of F)
  Chain of spheres X        ....       4.715 sec  ( 67.9% of F)
  XC integration            ....       0.899 sec  ( 12.9% of F)
Z-vector equation           ....      71.367 sec  ( 70.6%)
One electron gradient       ....       1.550 sec  (  1.5%)
Prescreening matrices       ....       2.281 sec  (  2.3%)
RI-J Coulomb gradient       ....       3.357 sec  (  3.3%)
COSX gradient               ....       5.691 sec  (  5.6%)
XC gradient                 ....       9.214 sec  (  9.1%)

		************************************************************
		*      Energy Gradient Calculation For State   10 *
		************************************************************


           ************************************************************
           *        Program running with 28 parallel MPI-processes    *
           *              working on a common directory               *
           ************************************************************
------------------------------------------------------------------------------
                         ORCA SCF GRADIENT CALCULATION
------------------------------------------------------------------------------


-------------------
TD-DFT GRADIENT
-------------------

Reference wavefunction             ... RHF
State of interest                  ... 10
Basis dimension                    ... 451
DFT-XC contribution needed         ... YES
RI-approximation                   ... ON
CIS-vectors being read from        ... pht.cis

 => Number of Vectors found: 20
 => Orbital Window: 13...42 -> 43...450

Reading the RPA file                     ... done
Norm of the RPA vector                   ... 1.000000000
Making the RPA (pseudo)densities         ... done
Making operators G(D) and Q(T)           ... done
Transforming the Fock operators          ... done
Making the frozen-core relaxed density   ... done
Constructing the G(H) operator           ... done
Transforming the G(H) operator           ... done
Calculating the RPA Lagrangian           ... done
Solving the Z-vector equations           ... done
Finalizing the relaxed density           ... done
Storing the relaxed density              ... done
Constructing the G(Z) operator           ... done
Transforming the G(Z) operator           ... done
Making the W-matrix                      ... done
Finalizing the W-matrix                  ... done
Transforming the W-matrix                ... done
Nuclear repulsion gradient               ... done
One-Electron gradient                    ... done
Prescreening matrices                    ... done
COSX-gradient                            ... done
Coulomb gradient (RI)                    ... done
Exchange-Correlation gradient            ... done
                 ---------------------------
                 EXCITED STATE GRADIENT DONE
                 ---------------------------


------------------
CARTESIAN GRADIENT
------------------

   1   C   :   -0.084723450   -0.044660346    0.052340240
   2   H   :    0.088207530   -0.018802940    0.049849530
   3   H   :    0.007399296   -0.039147657   -0.093537756
   4   H   :   -0.010745063    0.102284735   -0.009007844
   5   C   :    0.073594556    0.036655200   -0.048714285
   6   C   :   -0.099238671   -0.047515138    0.067762421
   7   C   :    0.076851360    0.036986096   -0.057951351
   8   C   :   -0.060977146   -0.029954655    0.046561557
   9   C   :    0.056544439    0.030857919   -0.047906811
  10   C   :   -0.057921016   -0.032285102    0.051393409
  11   C   :    0.022008757    0.014227714   -0.028192471
  12   C   :    0.015655723   -0.023443438    0.119349280
  13   H   :   -0.033972572    0.018749892   -0.130378958
  14   C   :    0.115257188    0.041803038    0.021980917
  15   H   :   -0.122277922   -0.039688499   -0.045276925
  16   C   :    0.070670108    0.049307395   -0.066504386
  17   H   :   -0.086625661   -0.060176371    0.085092342
  18   C   :   -0.012479072    0.024845760   -0.124343597
  19   H   :    0.034453869   -0.016867474    0.129401213
  20   C   :   -0.112673698   -0.044275686   -0.016141828
  21   H   :    0.120739732    0.041536616    0.044466167

Difference to translation invariance:
           :   -0.0002517147    0.0004370571    0.0002408665

Norm of the cartesian gradient     ...    0.5169474824
RMS gradient                       ...    0.0651292609
MAX gradient                       ...    0.1303789576

-------
TIMINGS
-------

Total TD-DFT gradient time         ...       89.992 sec

Fock matrix formation       ....       6.716 sec  (  7.5%)
  Coulomb formation         ....       5.837 sec  ( 86.9% of F)
  RI-J                      ....       1.279 sec  ( 19.0% of F)
  Chain of spheres X        ....       4.544 sec  ( 67.7% of F)
  XC integration            ....       0.879 sec  ( 13.1% of F)
Z-vector equation           ....      60.445 sec  ( 67.2%)
One electron gradient       ....       1.543 sec  (  1.7%)
Prescreening matrices       ....       2.261 sec  (  2.5%)
RI-J Coulomb gradient       ....       3.418 sec  (  3.8%)
COSX gradient               ....       5.687 sec  (  6.3%)
XC gradient                 ....       9.179 sec  ( 10.2%)

Mass weighting the hessian        ... done
Symmetrizing the hessian          ... done
Calculating normal modes          ... done


-----------------------------------------------
ENTERING SURFACE PARAMETERS CALCULATION
-----------------------------------------------

Mass weighting the cartesian gradient                                ... done
Calculating energy gradient along normal modes at the input geometry ... done


Warning (ORCA/NMGradient): Normal Mode    6 is imaginary
Corresponding displacements will be set to zero


Warning (ORCA/NMGradient): Normal Mode    7 is imaginary
Corresponding displacements will be set to zero


Warning (ORCA/NMGradient): Normal Mode    8 is imaginary
Corresponding displacements will be set to zero


Warning (ORCA/NMGradient): Normal Mode    9 is imaginary
Corresponding displacements will be set to zero


Warning (ORCA/NMGradient): Normal Mode   10 is imaginary
Corresponding displacements will be set to zero


Warning (ORCA/NMGradient): Normal Mode   11 is imaginary
Corresponding displacements will be set to zero


Warning (ORCA/NMGradient): Normal Mode   12 is imaginary
Corresponding displacements will be set to zero


Warning (ORCA/NMGradient): Normal Mode   13 is imaginary
Corresponding displacements will be set to zero


Warning (ORCA/NMGradient): Normal Mode   14 is imaginary
Corresponding displacements will be set to zero


Warning (ORCA/NMGradient): Normal Mode   15 is imaginary
Corresponding displacements will be set to zero


Warning (ORCA/NMGradient): Normal Mode   16 is imaginary
Corresponding displacements will be set to zero


Warning (ORCA/NMGradient): Normal Mode   17 is imaginary
Corresponding displacements will be set to zero


Surface parameters are stored in the file :     pht.rrhess
Prepared input file for orca_asa run      :    pht.asa.inp

Timings for individual modules:

Sum of individual times         ...     1055.166 sec (=  17.586 min)
GTO integral calculation        ...        0.921 sec (=   0.015 min)   0.1 %
SCF iterations                  ...       36.973 sec (=   0.616 min)   3.5 %
CIS module                      ...       78.607 sec (=   1.310 min)   7.4 %
SCF Gradient evaluation         ...      938.665 sec (=  15.644 min)  89.0 %
                             ****ORCA TERMINATED NORMALLY****
TOTAL RUN TIME: 0 days 0 hours 17 minutes 36 seconds 37 msec
